BEGIN_RES PHE A 22
REMARK INDEX MAP 3 1 15 2 18 3 19 4 20 5 22 6 23 7 26 8
ROOT
ATOM      1  CA  PHE A  22      35.314   8.695  -0.552  1.00  0.00    +0.175 C 
ENDROOT
BRANCH   1   2
ATOM      2  CB  PHE A  22      35.331   9.810  -1.630  1.00  0.00    +0.070 C 
BRANCH   2   3
ATOM      3  CG  PHE A  22      34.220  10.889  -1.520  1.00  0.00    -0.045 A 
ATOM      4  CD1 PHE A  22      32.868  10.527  -1.594  1.00  0.00    +0.004 A 
ATOM      5  CD2 PHE A  22      34.556  12.251  -1.368  1.00  0.00    +0.004 A 
ATOM      6  CE1 PHE A  22      31.865  11.508  -1.528  1.00  0.00    +0.000 A 
ATOM      7  CE2 PHE A  22      33.554  13.229  -1.307  1.00  0.00    +0.000 A 
ATOM      8  CZ  PHE A  22      32.209  12.858  -1.389  1.00  0.00    +0.000 A 
ENDBRANCH   2   3
ENDBRANCH   1   2
END_RES PHE A 22
