BEGIN_RES TYR A 22
REMARK INDEX MAP 3 1 15 2 18 3 19 4 20 5 22 6 23 7 26 8 28 9 29 10
ROOT
ATOM      1  CA  TYR A  22      35.067   8.750  -0.223  1.00  0.00    +0.175 C 
ENDROOT
BRANCH   1   2
ATOM      2  CB  TYR A  22      34.358   9.550  -1.334  1.00  0.00    +0.070 C 
BRANCH   2   3
ATOM      3  CG  TYR A  22      35.068  10.827  -1.542  1.00  0.00    -0.045 A 
ATOM      4  CD1 TYR A  22      36.252  10.787  -2.277  1.00  0.00    +0.007 A 
ATOM      5  CD2 TYR A  22      34.656  12.005  -0.928  1.00  0.00    +0.007 A 
ATOM      6  CE1 TYR A  22      37.005  11.930  -2.523  1.00  0.00    +0.046 A 
ATOM      7  CE2 TYR A  22      35.456  13.172  -1.090  1.00  0.00    +0.046 A 
ATOM      8  CZ  TYR A  22      36.583  13.086  -1.908  1.00  0.00    +0.115 A 
BRANCH   8   9
ATOM      9  OH  TYR A  22      37.345  14.197  -2.074  1.00  0.00    -0.507 OA
ATOM     10  HH  TYR A  22      37.077  15.049  -1.648  1.00  0.00    +0.294 HD
ENDBRANCH   8   9
ENDBRANCH   2   3
ENDBRANCH   1   2
END_RES TYR A 22
