MODEL 1
REMARK VINA RESULT:   -10.386      0.000      0.000
REMARK INTER + INTRA:         -16.153
REMARK INTER:                 -15.850
REMARK INTRA:                  -0.303
REMARK UNBOUND:                -0.303
REMARK  Name = 126941
REMARK  10 active torsions:
REMARK  status: ('A' for Active; 'I' for Inactive)
REMARK    1  A    between atoms: N_6  and  C_16
REMARK    2  A    between atoms: N_6  and  C_18
REMARK    3  A    between atoms: N_6  and  C_27
REMARK    4  A    between atoms: N_7  and  CA_14
REMARK    5  A    between atoms: CA_14  and  CB_15
REMARK    6  A    between atoms: CA_14  and  C_23
REMARK    7  A    between atoms: CB_15  and  CG_17
REMARK    8  A    between atoms: CG_17  and  CD_28
REMARK    9  A    between atoms: C_18  and  C_26
REMARK   10  A    between atoms: C_19  and  C_20
REMARK                            x       y       z     vdW  Elec       q    Type
REMARK                         _______ _______ _______ _____ _____    ______ ____
ROOT
ATOM      1  N   UNL     1      31.586  14.387   1.504  1.00  0.00    -0.327 N 
ATOM      2  C   UNL     1      32.740  13.720   2.073  1.00  0.00    +0.001 C 
ENDROOT
BRANCH   1   3
ATOM      3  C   UNL     1      31.676  15.728   1.078  1.00  0.00    +0.030 A 
ATOM      4  C   UNL     1      31.853  18.382   0.236  1.00  0.00    +0.037 A 
ATOM      5  C   UNL     1      30.514  16.462   0.836  1.00  0.00    -0.040 A 
ATOM      6  C   UNL     1      32.926  16.322   0.898  1.00  0.00    -0.040 A 
ATOM      7  C   UNL     1      30.602  17.789   0.415  1.00  0.00    -0.048 A 
ATOM      8  C   UNL     1      33.014  17.648   0.477  1.00  0.00    -0.048 A 
BRANCH   4  11
ATOM      9  O   UNL     1      32.257  20.663   0.599  1.00  0.00    -0.270 OA
ATOM     10  N   UNL     1      31.691  20.025  -1.558  1.00  0.00    -0.298 N 
ATOM     11  C   ACE A   0      31.947  19.796  -0.213  1.00  0.00    +0.245 C 
ATOM     12  H   UNL     1      31.450  19.262  -2.130  1.00  0.00    +0.000 HD
BRANCH  10  13
ATOM     13  CA  UNL     1      31.767  21.337  -2.148  1.00  0.00    +0.121 C 
BRANCH  13  16
ATOM     14  O   UNL     1      30.600  23.241  -1.315  1.00  0.00    -0.479 OA
ATOM     15  OXT UNL     1      29.341  21.555  -2.165  1.00  0.00    -0.249 OA
ATOM     16  C   UNL     1      30.440  22.027  -1.904  1.00  0.00    +0.325 C 
ENDBRANCH  13  16
BRANCH  13  17
ATOM     17  CB  UNL     1      32.183  21.301  -3.623  1.00  0.00    -0.014 C 
BRANCH  17  18
ATOM     18  CG  UNL     1      32.882  22.560  -4.151  1.00  0.00    +0.047 C 
BRANCH  18  21
ATOM     19  OE1 UNL     1      34.827  22.333  -5.498  1.00  0.00    -0.481 OA
ATOM     20  OE2 UNL     1      32.830  22.292  -6.572  1.00  0.00    -0.251 OA
ATOM     21  CD  UNL     1      33.471  22.396  -5.537  1.00  0.00    +0.305 C 
ENDBRANCH  18  21
ENDBRANCH  17  18
ENDBRANCH  13  17
ENDBRANCH  10  13
ENDBRANCH   4  11
ENDBRANCH   1   3
BRANCH   1  22
ATOM     22  C   UNL     1      30.335  13.663   1.393  1.00  0.00    +0.056 C 
BRANCH  22  29
ATOM     23  N   UNL     1      28.655  13.351  -0.346  1.00  0.00    -0.242 NA
ATOM     24  N   UNL     1      30.586  13.300  -2.329  1.00  0.00    -0.232 NA
ATOM     25  N   UNL     1      28.947  13.004  -3.938  1.00  0.00    -0.193 NA
ATOM     26  N   UNL     1      26.630  12.882  -3.330  1.00  0.00    -0.198 NA
ATOM     27  N   UNL     1      26.007  13.067  -1.058  1.00  0.00    -0.341 N 
ATOM     28  N   UNL     1      27.288  12.704  -5.570  1.00  0.00    -0.327 N 
ATOM     29  C   UNL     1      29.957  13.484  -0.051  1.00  0.00    +0.077 A 
ATOM     30  C   UNL     1      30.911  13.460  -1.032  1.00  0.00    +0.053 A 
ATOM     31  C   UNL     1      28.332  13.192  -1.644  1.00  0.00    +0.148 A 
ATOM     32  C   UNL     1      29.295  13.163  -2.655  1.00  0.00    +0.185 A 
ATOM     33  C   UNL     1      27.020  13.045  -2.052  1.00  0.00    +0.149 A 
ATOM     34  C   UNL     1      27.636  12.872  -4.212  1.00  0.00    +0.216 A 
ATOM     35  H   UNL     1      25.062  12.965  -1.316  1.00  0.00    +0.000 HD
ATOM     36  H   UNL     1      26.249  13.183  -0.111  1.00  0.00    +0.000 HD
ATOM     37  H   UNL     1      27.990  12.689  -6.260  1.00  0.00    +0.000 HD
ATOM     38  H   UNL     1      26.343  12.602  -5.827  1.00  0.00    +0.000 HD
ENDBRANCH  22  29
ENDBRANCH   1  22
TORSDOF 9
ENDMDL
MODEL 2
REMARK VINA RESULT:    -9.826      1.237      2.265
REMARK INTER + INTRA:         -15.299
REMARK INTER:                 -15.012
REMARK INTRA:                  -0.287
REMARK UNBOUND:                -0.303
REMARK  Name = 126941
REMARK  10 active torsions:
REMARK  status: ('A' for Active; 'I' for Inactive)
REMARK    1  A    between atoms: N_6  and  C_16
REMARK    2  A    between atoms: N_6  and  C_18
REMARK    3  A    between atoms: N_6  and  C_27
REMARK    4  A    between atoms: N_7  and  CA_14
REMARK    5  A    between atoms: CA_14  and  CB_15
REMARK    6  A    between atoms: CA_14  and  C_23
REMARK    7  A    between atoms: CB_15  and  CG_17
REMARK    8  A    between atoms: CG_17  and  CD_28
REMARK    9  A    between atoms: C_18  and  C_26
REMARK   10  A    between atoms: C_19  and  C_20
REMARK                            x       y       z     vdW  Elec       q    Type
REMARK                         _______ _______ _______ _____ _____    ______ ____
ROOT
ATOM      1  N   UNL     1      32.024  14.734   1.752  1.00  0.00    -0.327 N 
ATOM      2  C   UNL     1      33.272  14.035   1.989  1.00  0.00    +0.001 C 
ENDROOT
BRANCH   1   3
ATOM      3  C   UNL     1      32.030  16.051   1.247  1.00  0.00    +0.030 A 
ATOM      4  C   UNL     1      32.041  18.655   0.246  1.00  0.00    +0.037 A 
ATOM      5  C   UNL     1      33.241  16.683   0.962  1.00  0.00    -0.040 A 
ATOM      6  C   UNL     1      30.825  16.721   1.032  1.00  0.00    -0.040 A 
ATOM      7  C   UNL     1      33.246  17.986   0.461  1.00  0.00    -0.048 A 
ATOM      8  C   UNL     1      30.831  18.023   0.532  1.00  0.00    -0.048 A 
BRANCH   4  11
ATOM      9  O   UNL     1      32.235  20.980   0.484  1.00  0.00    -0.270 OA
ATOM     10  N   UNL     1      31.857  20.168  -1.656  1.00  0.00    -0.298 N 
ATOM     11  C   ACE A   0      32.047  20.042  -0.287  1.00  0.00    +0.245 C 
ATOM     12  H   UNL     1      31.715  19.354  -2.191  1.00  0.00    +0.000 HD
BRANCH  10  13
ATOM     13  CA  UNL     1      31.862  21.445  -2.325  1.00  0.00    +0.121 C 
BRANCH  13  16
ATOM     14  O   UNL     1      29.486  21.508  -2.168  1.00  0.00    -0.479 OA
ATOM     15  OXT UNL     1      30.616  23.306  -1.369  1.00  0.00    -0.249 OA
ATOM     16  C   UNL     1      30.623  22.196  -1.886  1.00  0.00    +0.325 C 
ENDBRANCH  13  16
BRANCH  13  17
ATOM     17  CB  UNL     1      32.002  21.317  -3.847  1.00  0.00    -0.014 C 
BRANCH  17  18
ATOM     18  CG  UNL     1      33.423  21.476  -4.403  1.00  0.00    +0.047 C 
BRANCH  18  21
ATOM     19  OE1 UNL     1      34.826  20.280  -2.902  1.00  0.00    -0.481 OA
ATOM     20  OE2 UNL     1      35.037  22.538  -2.920  1.00  0.00    -0.251 OA
ATOM     21  CD  UNL     1      34.494  21.525  -3.334  1.00  0.00    +0.305 C 
ENDBRANCH  18  21
ENDBRANCH  17  18
ENDBRANCH  13  17
ENDBRANCH  10  13
ENDBRANCH   4  11
ENDBRANCH   1   3
BRANCH   1  22
ATOM     22  C   UNL     1      30.773  14.069   2.055  1.00  0.00    +0.056 C 
BRANCH  22  29
ATOM     23  N   UNL     1      30.639  13.477  -0.307  1.00  0.00    -0.242 NA
ATOM     24  N   UNL     1      27.893  13.826  -0.332  1.00  0.00    -0.232 NA
ATOM     25  N   UNL     1      27.826  13.255  -2.575  1.00  0.00    -0.193 NA
ATOM     26  N   UNL     1      29.831  12.689  -3.763  1.00  0.00    -0.198 NA
ATOM     27  N   UNL     1      31.906  12.712  -2.633  1.00  0.00    -0.341 N 
ATOM     28  N   UNL     1      27.756  12.678  -4.849  1.00  0.00    -0.327 N 
ATOM     29  C   UNL     1      29.976  13.849   0.799  1.00  0.00    +0.077 A 
ATOM     30  C   UNL     1      28.619  14.020   0.787  1.00  0.00    +0.053 A 
ATOM     31  C   UNL     1      29.912  13.282  -1.423  1.00  0.00    +0.148 A 
ATOM     32  C   UNL     1      28.526  13.455  -1.451  1.00  0.00    +0.185 A 
ATOM     33  C   UNL     1      30.499  12.900  -2.614  1.00  0.00    +0.149 A 
ATOM     34  C   UNL     1      28.510  12.883  -3.673  1.00  0.00    +0.216 A 
ATOM     35  H   UNL     1      32.355  12.439  -3.465  1.00  0.00    +0.000 HD
ATOM     36  H   UNL     1      32.432  12.856  -1.813  1.00  0.00    +0.000 HD
ATOM     37  H   UNL     1      26.780  12.807  -4.836  1.00  0.00    +0.000 HD
ATOM     38  H   UNL     1      28.206  12.405  -5.680  1.00  0.00    +0.000 HD
ENDBRANCH  22  29
ENDBRANCH   1  22
TORSDOF 9
ENDMDL
MODEL 3
REMARK VINA RESULT:    -9.280      1.293      2.475
REMARK INTER + INTRA:         -14.466
REMARK INTER:                 -15.121
REMARK INTRA:                   0.655
REMARK UNBOUND:                -0.303
REMARK  Name = 126941
REMARK  10 active torsions:
REMARK  status: ('A' for Active; 'I' for Inactive)
REMARK    1  A    between atoms: N_6  and  C_16
REMARK    2  A    between atoms: N_6  and  C_18
REMARK    3  A    between atoms: N_6  and  C_27
REMARK    4  A    between atoms: N_7  and  CA_14
REMARK    5  A    between atoms: CA_14  and  CB_15
REMARK    6  A    between atoms: CA_14  and  C_23
REMARK    7  A    between atoms: CB_15  and  CG_17
REMARK    8  A    between atoms: CG_17  and  CD_28
REMARK    9  A    between atoms: C_18  and  C_26
REMARK   10  A    between atoms: C_19  and  C_20
REMARK                            x       y       z     vdW  Elec       q    Type
REMARK                         _______ _______ _______ _____ _____    ______ ____
ROOT
ATOM      1  N   UNL     1      31.979  14.897   1.511  1.00  0.00    -0.327 N 
ATOM      2  C   UNL     1      33.228  14.414   2.064  1.00  0.00    +0.001 C 
ENDROOT
BRANCH   1   3
ATOM      3  C   UNL     1      31.886  16.204   0.991  1.00  0.00    +0.030 A 
ATOM      4  C   UNL     1      31.702  18.791  -0.036  1.00  0.00    +0.037 A 
ATOM      5  C   UNL     1      30.641  16.730   0.644  1.00  0.00    -0.040 A 
ATOM      6  C   UNL     1      33.038  16.972   0.823  1.00  0.00    -0.040 A 
ATOM      7  C   UNL     1      30.549  18.024   0.130  1.00  0.00    -0.048 A 
ATOM      8  C   UNL     1      32.946  18.265   0.310  1.00  0.00    -0.048 A 
BRANCH   4  11
ATOM      9  O   UNL     1      31.998  21.114   0.096  1.00  0.00    -0.270 OA
ATOM     10  N   UNL     1      31.080  20.280  -1.865  1.00  0.00    -0.298 N 
ATOM     11  C   ACE A   0      31.604  20.170  -0.584  1.00  0.00    +0.245 C 
ATOM     12  H   UNL     1      30.791  19.461  -2.329  1.00  0.00    +0.000 HD
BRANCH  10  13
ATOM     13  CA  UNL     1      30.944  21.545  -2.540  1.00  0.00    +0.121 C 
BRANCH  13  16
ATOM     14  O   UNL     1      31.996  22.591  -4.405  1.00  0.00    -0.479 OA
ATOM     15  OXT UNL     1      33.300  21.274  -3.095  1.00  0.00    -0.249 OA
ATOM     16  C   UNL     1      32.210  21.776  -3.339  1.00  0.00    +0.325 C 
ENDBRANCH  13  16
BRANCH  13  17
ATOM     17  CB  UNL     1      30.598  22.693  -1.584  1.00  0.00    -0.014 C 
BRANCH  17  18
ATOM     18  CG  UNL     1      31.604  23.850  -1.537  1.00  0.00    +0.047 C 
BRANCH  18  21
ATOM     19  OE1 UNL     1      32.563  25.568  -0.204  1.00  0.00    -0.481 OA
ATOM     20  OE2 UNL     1      30.865  24.384   0.723  1.00  0.00    -0.251 OA
ATOM     21  CD  UNL     1      31.619  24.591  -0.217  1.00  0.00    +0.305 C 
ENDBRANCH  18  21
ENDBRANCH  17  18
ENDBRANCH  13  17
ENDBRANCH  10  13
ENDBRANCH   4  11
ENDBRANCH   1   3
BRANCH   1  22
ATOM     22  C   UNL     1      30.822  14.024   1.513  1.00  0.00    +0.056 C 
BRANCH  22  29
ATOM     23  N   UNL     1      29.064  13.589  -0.122  1.00  0.00    -0.242 NA
ATOM     24  N   UNL     1      30.905  13.360  -2.175  1.00  0.00    -0.232 NA
ATOM     25  N   UNL     1      29.195  12.952  -3.683  1.00  0.00    -0.193 NA
ATOM     26  N   UNL     1      26.907  12.904  -2.967  1.00  0.00    -0.198 NA
ATOM     27  N   UNL     1      26.386  13.277  -0.692  1.00  0.00    -0.341 N 
ATOM     28  N   UNL     1      27.463  12.539  -5.212  1.00  0.00    -0.327 N 
ATOM     29  C   UNL     1      30.379  13.733   0.105  1.00  0.00    +0.077 A 
ATOM     30  C   UNL     1      31.289  13.620  -0.910  1.00  0.00    +0.053 A 
ATOM     31  C   UNL     1      28.683  13.330  -1.386  1.00  0.00    +0.148 A 
ATOM     32  C   UNL     1      29.600  13.211  -2.433  1.00  0.00    +0.185 A 
ATOM     33  C   UNL     1      27.354  13.164  -1.725  1.00  0.00    +0.149 A 
ATOM     34  C   UNL     1      27.872  12.812  -3.888  1.00  0.00    +0.216 A 
ATOM     35  H   UNL     1      25.429  13.165  -0.900  1.00  0.00    +0.000 HD
ATOM     36  H   UNL     1      26.670  13.467   0.231  1.00  0.00    +0.000 HD
ATOM     37  H   UNL     1      28.135  12.461  -5.928  1.00  0.00    +0.000 HD
ATOM     38  H   UNL     1      26.508  12.427  -5.418  1.00  0.00    +0.000 HD
ENDBRANCH  22  29
ENDBRANCH   1  22
TORSDOF 9
ENDMDL
MODEL 4
REMARK VINA RESULT:    -9.208      1.781      3.689
REMARK INTER + INTRA:         -14.355
REMARK INTER:                 -14.020
REMARK INTRA:                  -0.335
REMARK UNBOUND:                -0.303
REMARK  Name = 126941
REMARK  10 active torsions:
REMARK  status: ('A' for Active; 'I' for Inactive)
REMARK    1  A    between atoms: N_6  and  C_16
REMARK    2  A    between atoms: N_6  and  C_18
REMARK    3  A    between atoms: N_6  and  C_27
REMARK    4  A    between atoms: N_7  and  CA_14
REMARK    5  A    between atoms: CA_14  and  CB_15
REMARK    6  A    between atoms: CA_14  and  C_23
REMARK    7  A    between atoms: CB_15  and  CG_17
REMARK    8  A    between atoms: CG_17  and  CD_28
REMARK    9  A    between atoms: C_18  and  C_26
REMARK   10  A    between atoms: C_19  and  C_20
REMARK                            x       y       z     vdW  Elec       q    Type
REMARK                         _______ _______ _______ _____ _____    ______ ____
ROOT
ATOM      1  N   UNL     1      32.864  16.017   1.339  1.00  0.00    -0.327 N 
ATOM      2  C   UNL     1      34.238  15.558   1.357  1.00  0.00    +0.001 C 
ENDROOT
BRANCH   1   3
ATOM      3  C   UNL     1      32.521  17.220   0.687  1.00  0.00    +0.030 A 
ATOM      4  C   UNL     1      31.845  19.599  -0.605  1.00  0.00    +0.037 A 
ATOM      5  C   UNL     1      33.525  18.053   0.189  1.00  0.00    -0.040 A 
ATOM      6  C   UNL     1      31.181  17.578   0.539  1.00  0.00    -0.040 A 
ATOM      7  C   UNL     1      33.186  19.242  -0.457  1.00  0.00    -0.048 A 
ATOM      8  C   UNL     1      30.844  18.766  -0.106  1.00  0.00    -0.048 A 
BRANCH   4  11
ATOM      9  O   UNL     1      30.303  21.114  -1.512  1.00  0.00    -0.270 OA
ATOM     10  N   UNL     1      32.545  21.701  -1.622  1.00  0.00    -0.298 N 
ATOM     11  C   ACE A   0      31.486  20.866  -1.293  1.00  0.00    +0.245 C 
ATOM     12  H   UNL     1      33.460  21.412  -1.404  1.00  0.00    +0.000 HD
BRANCH  10  13
ATOM     13  CA  UNL     1      32.355  22.974  -2.269  1.00  0.00    +0.121 C 
BRANCH  13  16
ATOM     14  O   UNL     1      32.033  22.402  -4.560  1.00  0.00    -0.479 OA
ATOM     15  OXT UNL     1      34.096  23.139  -3.965  1.00  0.00    -0.249 OA
ATOM     16  C   UNL     1      32.940  22.871  -3.663  1.00  0.00    +0.325 C 
ENDBRANCH  13  16
BRANCH  13  17
ATOM     17  CB  UNL     1      32.911  24.145  -1.450  1.00  0.00    -0.014 C 
BRANCH  17  18
ATOM     18  CG  UNL     1      31.867  25.094  -0.848  1.00  0.00    +0.047 C 
BRANCH  18  21
ATOM     19  OE1 UNL     1      31.446  25.706   1.410  1.00  0.00    -0.481 OA
ATOM     20  OE2 UNL     1      30.950  23.573   0.820  1.00  0.00    -0.251 OA
ATOM     21  CD  UNL     1      31.383  24.678   0.525  1.00  0.00    +0.305 C 
ENDBRANCH  18  21
ENDBRANCH  17  18
ENDBRANCH  13  17
ENDBRANCH  10  13
ENDBRANCH   4  11
ENDBRANCH   1   3
BRANCH   1  22
ATOM     22  C   UNL     1      31.849  15.233   2.014  1.00  0.00    +0.056 C 
BRANCH  22  29
ATOM     23  N   UNL     1      31.263  14.216  -0.123  1.00  0.00    -0.242 NA
ATOM     24  N   UNL     1      28.557  14.388   0.433  1.00  0.00    -0.232 NA
ATOM     25  N   UNL     1      28.060  13.418  -1.610  1.00  0.00    -0.193 NA
ATOM     26  N   UNL     1      29.804  12.767  -3.123  1.00  0.00    -0.198 NA
ATOM     27  N   UNL     1      32.062  13.120  -2.523  1.00  0.00    -0.341 N 
ATOM     28  N   UNL     1      27.554  12.434  -3.680  1.00  0.00    -0.327 N 
ATOM     29  C   UNL     1      30.823  14.741   1.030  1.00  0.00    +0.077 A 
ATOM     30  C   UNL     1      29.485  14.826   1.305  1.00  0.00    +0.053 A 
ATOM     31  C   UNL     1      30.333  13.778  -0.994  1.00  0.00    +0.148 A 
ATOM     32  C   UNL     1      28.964  13.860  -0.728  1.00  0.00    +0.185 A 
ATOM     33  C   UNL     1      30.682  13.222  -2.210  1.00  0.00    +0.149 A 
ATOM     34  C   UNL     1      28.522  12.895  -2.761  1.00  0.00    +0.216 A 
ATOM     35  H   UNL     1      32.344  12.728  -3.381  1.00  0.00    +0.000 HD
ATOM     36  H   UNL     1      32.738  13.442  -1.883  1.00  0.00    +0.000 HD
ATOM     37  H   UNL     1      26.597  12.505  -3.463  1.00  0.00    +0.000 HD
ATOM     38  H   UNL     1      27.837  12.043  -4.538  1.00  0.00    +0.000 HD
ENDBRANCH  22  29
ENDBRANCH   1  22
TORSDOF 9
ENDMDL
MODEL 5
REMARK VINA RESULT:    -9.197      4.342     10.292
REMARK INTER + INTRA:         -14.339
REMARK INTER:                 -13.134
REMARK INTRA:                  -1.205
REMARK UNBOUND:                -0.303
REMARK  Name = 126941
REMARK  10 active torsions:
REMARK  status: ('A' for Active; 'I' for Inactive)
REMARK    1  A    between atoms: N_6  and  C_16
REMARK    2  A    between atoms: N_6  and  C_18
REMARK    3  A    between atoms: N_6  and  C_27
REMARK    4  A    between atoms: N_7  and  CA_14
REMARK    5  A    between atoms: CA_14  and  CB_15
REMARK    6  A    between atoms: CA_14  and  C_23
REMARK    7  A    between atoms: CB_15  and  CG_17
REMARK    8  A    between atoms: CG_17  and  CD_28
REMARK    9  A    between atoms: C_18  and  C_26
REMARK   10  A    between atoms: C_19  and  C_20
REMARK                            x       y       z     vdW  Elec       q    Type
REMARK                         _______ _______ _______ _____ _____    ______ ____
ROOT
ATOM      1  N   UNL     1      32.913  21.823  -3.253  1.00  0.00    -0.327 N 
ATOM      2  C   UNL     1      34.056  21.641  -4.125  1.00  0.00    +0.001 C 
ENDROOT
BRANCH   1   3
ATOM      3  C   UNL     1      32.564  20.828  -2.317  1.00  0.00    +0.030 A 
ATOM      4  C   UNL     1      31.875  18.860  -0.463  1.00  0.00    +0.037 A 
ATOM      5  C   UNL     1      33.562  20.152  -1.614  1.00  0.00    -0.040 A 
ATOM      6  C   UNL     1      31.223  20.519  -2.093  1.00  0.00    -0.040 A 
ATOM      7  C   UNL     1      33.218  19.168  -0.686  1.00  0.00    -0.048 A 
ATOM      8  C   UNL     1      30.878  19.536  -1.167  1.00  0.00    -0.048 A 
BRANCH   4  11
ATOM      9  O   UNL     1      30.518  17.976   1.232  1.00  0.00    -0.270 OA
ATOM     10  N   UNL     1      32.326  16.690   0.552  1.00  0.00    -0.298 N 
ATOM     11  C   ACE A   0      31.508  17.812   0.525  1.00  0.00    +0.245 C 
ATOM     12  H   UNL     1      33.098  16.653  -0.056  1.00  0.00    +0.000 HD
BRANCH  10  13
ATOM     13  CA  UNL     1      32.085  15.579   1.437  1.00  0.00    +0.121 C 
BRANCH  13  16
ATOM     14  O   UNL     1      34.458  15.633   1.223  1.00  0.00    -0.479 OA
ATOM     15  OXT UNL     1      33.557  13.800   2.212  1.00  0.00    -0.249 OA
ATOM     16  C   UNL     1      33.414  14.897   1.688  1.00  0.00    +0.325 C 
ENDBRANCH  13  16
BRANCH  13  17
ATOM     17  CB  UNL     1      30.993  14.634   0.920  1.00  0.00    -0.014 C 
BRANCH  17  18
ATOM     18  CG  UNL     1      31.291  13.935  -0.412  1.00  0.00    +0.047 C 
BRANCH  18  21
ATOM     19  OE1 UNL     1      29.756  15.354  -1.542  1.00  0.00    -0.481 OA
ATOM     20  OE2 UNL     1      29.730  13.160  -2.115  1.00  0.00    -0.251 OA
ATOM     21  CD  UNL     1      30.181  14.069  -1.433  1.00  0.00    +0.305 C 
ENDBRANCH  18  21
ENDBRANCH  17  18
ENDBRANCH  13  17
ENDBRANCH  10  13
ENDBRANCH   4  11
ENDBRANCH   1   3
BRANCH   1  22
ATOM     22  C   UNL     1      32.124  23.033  -3.367  1.00  0.00    +0.056 C 
BRANCH  22  29
ATOM     23  N   UNL     1      31.908  24.163  -1.216  1.00  0.00    -0.242 NA
ATOM     24  N   UNL     1      34.090  25.781  -1.744  1.00  0.00    -0.232 NA
ATOM     25  N   UNL     1      33.836  26.818   0.311  1.00  0.00    -0.193 NA
ATOM     26  N   UNL     1      32.078  26.173   1.809  1.00  0.00    -0.198 NA
ATOM     27  N   UNL     1      30.581  24.455   1.182  1.00  0.00    -0.341 N 
ATOM     28  N   UNL     1      33.581  27.871   2.393  1.00  0.00    -0.327 N 
ATOM     29  C   UNL     1      32.586  24.059  -2.369  1.00  0.00    +0.077 A 
ATOM     30  C   UNL     1      33.665  24.859  -2.630  1.00  0.00    +0.053 A 
ATOM     31  C   UNL     1      32.334  25.084  -0.332  1.00  0.00    +0.148 A 
ATOM     32  C   UNL     1      33.433  25.909  -0.585  1.00  0.00    +0.185 A 
ATOM     33  C   UNL     1      31.704  25.271   0.883  1.00  0.00    +0.149 A 
ATOM     34  C   UNL     1      33.142  26.906   1.460  1.00  0.00    +0.216 A 
ATOM     35  H   UNL     1      30.110  24.562   2.041  1.00  0.00    +0.000 HD
ATOM     36  H   UNL     1      30.274  23.782   0.532  1.00  0.00    +0.000 HD
ATOM     37  H   UNL     1      34.360  28.436   2.186  1.00  0.00    +0.000 HD
ATOM     38  H   UNL     1      33.109  27.977   3.250  1.00  0.00    +0.000 HD
ENDBRANCH  22  29
ENDBRANCH   1  22
TORSDOF 9
ENDMDL
MODEL 6
REMARK VINA RESULT:    -8.991      4.474     10.335
REMARK INTER + INTRA:         -14.024
REMARK INTER:                 -12.712
REMARK INTRA:                  -1.313
REMARK UNBOUND:                -0.303
REMARK  Name = 126941
REMARK  10 active torsions:
REMARK  status: ('A' for Active; 'I' for Inactive)
REMARK    1  A    between atoms: N_6  and  C_16
REMARK    2  A    between atoms: N_6  and  C_18
REMARK    3  A    between atoms: N_6  and  C_27
REMARK    4  A    between atoms: N_7  and  CA_14
REMARK    5  A    between atoms: CA_14  and  CB_15
REMARK    6  A    between atoms: CA_14  and  C_23
REMARK    7  A    between atoms: CB_15  and  CG_17
REMARK    8  A    between atoms: CG_17  and  CD_28
REMARK    9  A    between atoms: C_18  and  C_26
REMARK   10  A    between atoms: C_19  and  C_20
REMARK                            x       y       z     vdW  Elec       q    Type
REMARK                         _______ _______ _______ _____ _____    ______ ____
ROOT
ATOM      1  N   UNL     1      32.766  21.425  -2.318  1.00  0.00    -0.327 N 
ATOM      2  C   UNL     1      34.128  21.423  -2.813  1.00  0.00    +0.001 C 
ENDROOT
BRANCH   1   3
ATOM      3  C   UNL     1      32.271  20.324  -1.588  1.00  0.00    +0.030 A 
ATOM      4  C   UNL     1      31.290  18.147  -0.146  1.00  0.00    +0.037 A 
ATOM      5  C   UNL     1      30.962  19.886  -1.791  1.00  0.00    -0.040 A 
ATOM      6  C   UNL     1      33.088  19.674  -0.663  1.00  0.00    -0.040 A 
ATOM      7  C   UNL     1      30.471  18.796  -1.070  1.00  0.00    -0.048 A 
ATOM      8  C   UNL     1      32.598  18.587   0.057  1.00  0.00    -0.048 A 
BRANCH   4  11
ATOM      9  O   UNL     1      29.757  17.127   1.306  1.00  0.00    -0.270 OA
ATOM     10  N   UNL     1      31.472  15.798   0.483  1.00  0.00    -0.298 N 
ATOM     11  C   ACE A   0      30.768  16.987   0.622  1.00  0.00    +0.245 C 
ATOM     12  H   UNL     1      32.271  15.787  -0.090  1.00  0.00    +0.000 HD
BRANCH  10  13
ATOM     13  CA  UNL     1      31.075  14.581   1.144  1.00  0.00    +0.121 C 
BRANCH  13  16
ATOM     14  O   UNL     1      32.360  12.710   1.870  1.00  0.00    -0.479 OA
ATOM     15  OXT UNL     1      33.064  14.762   2.537  1.00  0.00    -0.249 OA
ATOM     16  C   UNL     1      32.273  14.066   1.913  1.00  0.00    +0.325 C 
ENDBRANCH  13  16
BRANCH  13  17
ATOM     17  CB  UNL     1      30.470  13.553   0.180  1.00  0.00    -0.014 C 
BRANCH  17  18
ATOM     18  CG  UNL     1      29.094  13.907  -0.397  1.00  0.00    +0.047 C 
BRANCH  18  21
ATOM     19  OE1 UNL     1      29.803  15.167  -2.284  1.00  0.00    -0.481 OA
ATOM     20  OE2 UNL     1      28.549  13.323  -2.699  1.00  0.00    -0.251 OA
ATOM     21  CD  UNL     1      29.088  14.077  -1.902  1.00  0.00    +0.305 C 
ENDBRANCH  18  21
ENDBRANCH  17  18
ENDBRANCH  13  17
ENDBRANCH  10  13
ENDBRANCH   4  11
ENDBRANCH   1   3
BRANCH   1  22
ATOM     22  C   UNL     1      31.915  22.565  -2.596  1.00  0.00    +0.056 C 
BRANCH  22  29
ATOM     23  N   UNL     1      32.769  24.433  -1.281  1.00  0.00    -0.242 NA
ATOM     24  N   UNL     1      30.780  24.124   0.619  1.00  0.00    -0.232 NA
ATOM     25  N   UNL     1      31.635  25.906   1.825  1.00  0.00    -0.193 NA
ATOM     26  N   UNL     1      33.573  27.094   1.062  1.00  0.00    -0.198 NA
ATOM     27  N   UNL     1      34.628  26.441  -0.948  1.00  0.00    -0.341 N 
ATOM     28  N   UNL     1      32.500  27.711   3.050  1.00  0.00    -0.327 N 
ATOM     29  C   UNL     1      31.841  23.471  -1.398  1.00  0.00    +0.077 A 
ATOM     30  C   UNL     1      30.858  23.319  -0.459  1.00  0.00    +0.053 A 
ATOM     31  C   UNL     1      32.689  25.237  -0.204  1.00  0.00    +0.148 A 
ATOM     32  C   UNL     1      31.692  25.093   0.763  1.00  0.00    +0.185 A 
ATOM     33  C   UNL     1      33.596  26.257   0.009  1.00  0.00    +0.149 A 
ATOM     34  C   UNL     1      32.575  26.864   1.923  1.00  0.00    +0.216 A 
ATOM     35  H   UNL     1      35.290  27.160  -0.827  1.00  0.00    +0.000 HD
ATOM     36  H   UNL     1      34.681  25.850  -1.734  1.00  0.00    +0.000 HD
ATOM     37  H   UNL     1      31.784  27.584   3.714  1.00  0.00    +0.000 HD
ATOM     38  H   UNL     1      33.162  28.429   3.171  1.00  0.00    +0.000 HD
ENDBRANCH  22  29
ENDBRANCH   1  22
TORSDOF 9
ENDMDL
MODEL 7
REMARK VINA RESULT:    -8.746      4.314      9.882
REMARK INTER + INTRA:         -13.650
REMARK INTER:                 -12.548
REMARK INTRA:                  -1.102
REMARK UNBOUND:                -0.303
REMARK  Name = 126941
REMARK  10 active torsions:
REMARK  status: ('A' for Active; 'I' for Inactive)
REMARK    1  A    between atoms: N_6  and  C_16
REMARK    2  A    between atoms: N_6  and  C_18
REMARK    3  A    between atoms: N_6  and  C_27
REMARK    4  A    between atoms: N_7  and  CA_14
REMARK    5  A    between atoms: CA_14  and  CB_15
REMARK    6  A    between atoms: CA_14  and  C_23
REMARK    7  A    between atoms: CB_15  and  CG_17
REMARK    8  A    between atoms: CG_17  and  CD_28
REMARK    9  A    between atoms: C_18  and  C_26
REMARK   10  A    between atoms: C_19  and  C_20
REMARK                            x       y       z     vdW  Elec       q    Type
REMARK                         _______ _______ _______ _____ _____    ______ ____
ROOT
ATOM      1  N   UNL     1      33.336  20.817  -2.028  1.00  0.00    -0.327 N 
ATOM      2  C   UNL     1      34.646  20.472  -2.545  1.00  0.00    +0.001 C 
ENDROOT
BRANCH   1   3
ATOM      3  C   UNL     1      32.589  19.874  -1.291  1.00  0.00    +0.030 A 
ATOM      4  C   UNL     1      31.112  18.010   0.167  1.00  0.00    +0.037 A 
ATOM      5  C   UNL     1      33.205  19.131  -0.284  1.00  0.00    -0.040 A 
ATOM      6  C   UNL     1      31.235  19.685  -1.569  1.00  0.00    -0.040 A 
ATOM      7  C   UNL     1      32.466  18.198   0.446  1.00  0.00    -0.048 A 
ATOM      8  C   UNL     1      30.498  18.753  -0.841  1.00  0.00    -0.048 A 
BRANCH   4  11
ATOM      9  O   UNL     1      29.298  17.379   1.512  1.00  0.00    -0.270 OA
ATOM     10  N   UNL     1      30.818  15.719   0.947  1.00  0.00    -0.298 N 
ATOM     11  C   ACE A   0      30.325  17.018   0.945  1.00  0.00    +0.245 C 
ATOM     12  H   UNL     1      31.652  15.529   0.461  1.00  0.00    +0.000 HD
BRANCH  10  13
ATOM     13  CA  UNL     1      30.154  14.641   1.634  1.00  0.00    +0.121 C 
BRANCH  13  16
ATOM     14  O   UNL     1      32.307  14.578   2.653  1.00  0.00    -0.479 OA
ATOM     15  OXT UNL     1      31.140  12.633   2.597  1.00  0.00    -0.249 OA
ATOM     16  C   UNL     1      31.216  13.829   2.347  1.00  0.00    +0.325 C 
ENDBRANCH  13  16
BRANCH  13  17
ATOM     17  CB  UNL     1      29.258  13.810   0.708  1.00  0.00    -0.014 C 
BRANCH  17  18
ATOM     18  CG  UNL     1      29.900  13.351  -0.607  1.00  0.00    +0.047 C 
BRANCH  18  21
ATOM     19  OE1 UNL     1      28.500  13.448  -2.525  1.00  0.00    -0.481 OA
ATOM     20  OE2 UNL     1      29.811  15.254  -2.125  1.00  0.00    -0.251 OA
ATOM     21  CD  UNL     1      29.436  14.132  -1.818  1.00  0.00    +0.305 C 
ENDBRANCH  18  21
ENDBRANCH  17  18
ENDBRANCH  13  17
ENDBRANCH  10  13
ENDBRANCH   4  11
ENDBRANCH   1   3
BRANCH   1  22
ATOM     22  C   UNL     1      32.798  22.136  -2.292  1.00  0.00    +0.056 C 
BRANCH  22  29
ATOM     23  N   UNL     1      33.934  23.567  -3.907  1.00  0.00    -0.242 NA
ATOM     24  N   UNL     1      32.746  22.261  -6.038  1.00  0.00    -0.232 NA
ATOM     25  N   UNL     1      33.851  23.649  -7.525  1.00  0.00    -0.193 NA
ATOM     26  N   UNL     1      35.329  25.368  -6.741  1.00  0.00    -0.198 NA
ATOM     27  N   UNL     1      35.664  25.651  -4.419  1.00  0.00    -0.341 N 
ATOM     28  N   UNL     1      34.970  25.056  -9.034  1.00  0.00    -0.327 N 
ATOM     29  C   UNL     1      33.084  22.548  -3.710  1.00  0.00    +0.077 A 
ATOM     30  C   UNL     1      32.498  21.902  -4.763  1.00  0.00    +0.053 A 
ATOM     31  C   UNL     1      34.181  23.924  -5.181  1.00  0.00    +0.148 A 
ATOM     32  C   UNL     1      33.588  23.275  -6.267  1.00  0.00    +0.185 A 
ATOM     33  C   UNL     1      35.040  24.962  -5.491  1.00  0.00    +0.149 A 
ATOM     34  C   UNL     1      34.706  24.674  -7.701  1.00  0.00    +0.216 A 
ATOM     35  H   UNL     1      36.282  26.395  -4.606  1.00  0.00    +0.000 HD
ATOM     36  H   UNL     1      35.480  25.386  -3.489  1.00  0.00    +0.000 HD
ATOM     37  H   UNL     1      34.538  24.577  -9.777  1.00  0.00    +0.000 HD
ATOM     38  H   UNL     1      35.588  25.799  -9.220  1.00  0.00    +0.000 HD
ENDBRANCH  22  29
ENDBRANCH   1  22
TORSDOF 9
ENDMDL
MODEL 8
REMARK VINA RESULT:    -8.600      4.382     10.224
REMARK INTER + INTRA:         -13.428
REMARK INTER:                 -12.287
REMARK INTRA:                  -1.141
REMARK UNBOUND:                -0.303
REMARK  Name = 126941
REMARK  10 active torsions:
REMARK  status: ('A' for Active; 'I' for Inactive)
REMARK    1  A    between atoms: N_6  and  C_16
REMARK    2  A    between atoms: N_6  and  C_18
REMARK    3  A    between atoms: N_6  and  C_27
REMARK    4  A    between atoms: N_7  and  CA_14
REMARK    5  A    between atoms: CA_14  and  CB_15
REMARK    6  A    between atoms: CA_14  and  C_23
REMARK    7  A    between atoms: CB_15  and  CG_17
REMARK    8  A    between atoms: CG_17  and  CD_28
REMARK    9  A    between atoms: C_18  and  C_26
REMARK   10  A    between atoms: C_19  and  C_20
REMARK                            x       y       z     vdW  Elec       q    Type
REMARK                         _______ _______ _______ _____ _____    ______ ____
ROOT
ATOM      1  N   UNL     1      32.047  21.078  -1.596  1.00  0.00    -0.327 N 
ATOM      2  C   UNL     1      31.836  22.320  -0.879  1.00  0.00    +0.001 C 
ENDROOT
BRANCH   1   3
ATOM      3  C   UNL     1      32.014  19.845  -0.912  1.00  0.00    +0.030 A 
ATOM      4  C   UNL     1      31.948  17.407   0.443  1.00  0.00    +0.037 A 
ATOM      5  C   UNL     1      33.148  19.392  -0.237  1.00  0.00    -0.040 A 
ATOM      6  C   UNL     1      30.848  19.080  -0.909  1.00  0.00    -0.040 A 
ATOM      7  C   UNL     1      33.116  18.172   0.440  1.00  0.00    -0.048 A 
ATOM      8  C   UNL     1      30.815  17.861  -0.232  1.00  0.00    -0.048 A 
BRANCH   4  11
ATOM      9  O   UNL     1      32.829  15.825   1.933  1.00  0.00    -0.270 OA
ATOM     10  N   UNL     1      30.806  15.308   0.922  1.00  0.00    -0.298 N 
ATOM     11  C   ACE A   0      31.914  16.109   1.165  1.00  0.00    +0.245 C 
ATOM     12  H   UNL     1      30.124  15.624   0.288  1.00  0.00    +0.000 HD
BRANCH  10  13
ATOM     13  CA  UNL     1      30.617  14.032   1.566  1.00  0.00    +0.121 C 
BRANCH  13  16
ATOM     14  O   UNL     1      32.502  12.584   1.720  1.00  0.00    -0.479 OA
ATOM     15  OXT UNL     1      31.449  12.688  -0.287  1.00  0.00    -0.249 OA
ATOM     16  C   UNL     1      31.531  13.035   0.884  1.00  0.00    +0.325 C 
ENDBRANCH  13  16
BRANCH  13  17
ATOM     17  CB  UNL     1      29.146  13.599   1.602  1.00  0.00    -0.014 C 
BRANCH  17  18
ATOM     18  CG  UNL     1      28.190  14.405   0.714  1.00  0.00    +0.047 C 
BRANCH  18  21
ATOM     19  OE1 UNL     1      29.027  14.304  -1.508  1.00  0.00    -0.481 OA
ATOM     20  OE2 UNL     1      27.184  13.063  -1.053  1.00  0.00    -0.251 OA
ATOM     21  CD  UNL     1      28.045  13.850  -0.687  1.00  0.00    +0.305 C 
ENDBRANCH  18  21
ENDBRANCH  17  18
ENDBRANCH  13  17
ENDBRANCH  10  13
ENDBRANCH   4  11
ENDBRANCH   1   3
BRANCH   1  22
ATOM     22  C   UNL     1      32.309  21.120  -3.020  1.00  0.00    +0.056 C 
BRANCH  22  29
ATOM     23  N   UNL     1      34.576  22.011  -2.902  1.00  0.00    -0.242 NA
ATOM     24  N   UNL     1      33.864  24.264  -4.344  1.00  0.00    -0.232 NA
ATOM     25  N   UNL     1      36.034  25.060  -4.200  1.00  0.00    -0.193 NA
ATOM     26  N   UNL     1      37.730  23.814  -3.050  1.00  0.00    -0.198 NA
ATOM     27  N   UNL     1      37.184  21.745  -2.050  1.00  0.00    -0.341 N 
ATOM     28  N   UNL     1      38.232  25.869  -4.054  1.00  0.00    -0.327 N 
ATOM     29  C   UNL     1      33.320  22.188  -3.339  1.00  0.00    +0.077 A 
ATOM     30  C   UNL     1      32.968  23.301  -4.052  1.00  0.00    +0.053 A 
ATOM     31  C   UNL     1      35.470  22.974  -3.195  1.00  0.00    +0.148 A 
ATOM     32  C   UNL     1      35.125  24.117  -3.921  1.00  0.00    +0.185 A 
ATOM     33  C   UNL     1      36.789  22.889  -2.791  1.00  0.00    +0.149 A 
ATOM     34  C   UNL     1      37.288  24.864  -3.752  1.00  0.00    +0.216 A 
ATOM     35  H   UNL     1      38.117  21.652  -1.747  1.00  0.00    +0.000 HD
ATOM     36  H   UNL     1      36.526  21.043  -1.838  1.00  0.00    +0.000 HD
ATOM     37  H   UNL     1      37.958  26.663  -4.569  1.00  0.00    +0.000 HD
ATOM     38  H   UNL     1      39.163  25.777  -3.751  1.00  0.00    +0.000 HD
ENDBRANCH  22  29
ENDBRANCH   1  22
TORSDOF 9
ENDMDL
MODEL 9
REMARK VINA RESULT:    -8.044      6.656     10.635
REMARK INTER + INTRA:         -12.580
REMARK INTER:                 -11.612
REMARK INTRA:                  -0.968
REMARK UNBOUND:                -0.303
REMARK  Name = 126941
REMARK  10 active torsions:
REMARK  status: ('A' for Active; 'I' for Inactive)
REMARK    1  A    between atoms: N_6  and  C_16
REMARK    2  A    between atoms: N_6  and  C_18
REMARK    3  A    between atoms: N_6  and  C_27
REMARK    4  A    between atoms: N_7  and  CA_14
REMARK    5  A    between atoms: CA_14  and  CB_15
REMARK    6  A    between atoms: CA_14  and  C_23
REMARK    7  A    between atoms: CB_15  and  CG_17
REMARK    8  A    between atoms: CG_17  and  CD_28
REMARK    9  A    between atoms: C_18  and  C_26
REMARK   10  A    between atoms: C_19  and  C_20
REMARK                            x       y       z     vdW  Elec       q    Type
REMARK                         _______ _______ _______ _____ _____    ______ ____
ROOT
ATOM      1  N   UNL     1      38.749  15.799   0.847  1.00  0.00    -0.327 N 
ATOM      2  C   UNL     1      39.534  16.339  -0.245  1.00  0.00    +0.001 C 
ENDROOT
BRANCH   1   3
ATOM      3  C   UNL     1      37.343  15.907   0.837  1.00  0.00    +0.030 A 
ATOM      4  C   UNL     1      34.562  16.119   0.816  1.00  0.00    +0.037 A 
ATOM      5  C   UNL     1      36.724  16.877   0.048  1.00  0.00    -0.040 A 
ATOM      6  C   UNL     1      36.571  15.044   1.615  1.00  0.00    -0.040 A 
ATOM      7  C   UNL     1      35.333  16.983   0.037  1.00  0.00    -0.048 A 
ATOM      8  C   UNL     1      35.181  15.150   1.604  1.00  0.00    -0.048 A 
BRANCH   4  11
ATOM      9  O   UNL     1      32.561  17.330   0.991  1.00  0.00    -0.270 OA
ATOM     10  N   UNL     1      32.382  15.059   0.553  1.00  0.00    -0.298 N 
ATOM     11  C   ACE A   0      33.080  16.233   0.804  1.00  0.00    +0.245 C 
ATOM     12  H   UNL     1      32.890  14.227   0.415  1.00  0.00    +0.000 HD
BRANCH  10  13
ATOM     13  CA  UNL     1      30.944  15.013   0.485  1.00  0.00    +0.121 C 
BRANCH  13  16
ATOM     14  O   UNL     1      29.298  13.633   1.517  1.00  0.00    -0.479 OA
ATOM     15  OXT UNL     1      30.981  14.390   2.839  1.00  0.00    -0.249 OA
ATOM     16  C   UNL     1      30.448  14.323   1.739  1.00  0.00    +0.325 C 
ENDBRANCH  13  16
BRANCH  13  17
ATOM     17  CB  UNL     1      30.432  14.378  -0.814  1.00  0.00    -0.014 C 
BRANCH  17  18
ATOM     18  CG  UNL     1      31.281  13.232  -1.378  1.00  0.00    +0.047 C 
BRANCH  18  21
ATOM     19  OE1 UNL     1      31.945  12.344  -3.480  1.00  0.00    -0.481 OA
ATOM     20  OE2 UNL     1      29.744  12.828  -3.225  1.00  0.00    -0.251 OA
ATOM     21  CD  UNL     1      30.880  12.805  -2.775  1.00  0.00    +0.305 C 
ENDBRANCH  18  21
ENDBRANCH  17  18
ENDBRANCH  13  17
ENDBRANCH  10  13
ENDBRANCH   4  11
ENDBRANCH   1   3
BRANCH   1  22
ATOM     22  C   UNL     1      39.429  15.162   1.957  1.00  0.00    +0.056 C 
BRANCH  22  29
ATOM     23  N   UNL     1      38.948  15.938   4.219  1.00  0.00    -0.242 NA
ATOM     24  N   UNL     1      40.678  18.082   3.949  1.00  0.00    -0.232 NA
ATOM     25  N   UNL     1      40.183  18.772   6.103  1.00  0.00    -0.193 NA
ATOM     26  N   UNL     1      38.631  17.550   7.463  1.00  0.00    -0.198 NA
ATOM     27  N   UNL     1      37.590  15.614   6.595  1.00  0.00    -0.341 N 
ATOM     28  N   UNL     1      39.682  19.473   8.286  1.00  0.00    -0.327 N 
ATOM     29  C   UNL     1      39.632  16.140   3.082  1.00  0.00    +0.077 A 
ATOM     30  C   UNL     1      40.488  17.199   2.949  1.00  0.00    +0.053 A 
ATOM     31  C   UNL     1      39.140  16.821   5.217  1.00  0.00    +0.148 A 
ATOM     32  C   UNL     1      40.009  17.908   5.095  1.00  0.00    +0.185 A 
ATOM     33  C   UNL     1      38.484  16.704   6.427  1.00  0.00    +0.149 A 
ATOM     34  C   UNL     1      39.488  18.552   7.234  1.00  0.00    +0.216 A 
ATOM     35  H   UNL     1      37.107  15.501   7.446  1.00  0.00    +0.000 HD
ATOM     36  H   UNL     1      37.453  14.971   5.862  1.00  0.00    +0.000 HD
ATOM     37  H   UNL     1      40.303  20.229   8.169  1.00  0.00    +0.000 HD
ATOM     38  H   UNL     1      39.199  19.360   9.135  1.00  0.00    +0.000 HD
ENDBRANCH  22  29
ENDBRANCH   1  22
TORSDOF 9
ENDMDL
