BEGIN_RES PHE A 31
REMARK INDEX MAP 3 1 15 2 18 3 19 4 20 5 22 6 23 7 26 8
ROOT
ATOM      1  CA  PHE A  31      31.820  17.581  -6.484  1.00  0.00    +0.175 C 
ENDROOT
BRANCH   1   2
ATOM      2  CB  PHE A  31      33.054  18.119  -5.730  1.00  0.00    +0.070 C 
BRANCH   2   3
ATOM      3  CG  PHE A  31      33.592  17.209  -4.678  1.00  0.00    -0.045 A 
ATOM      4  CD1 PHE A  31      32.797  16.769  -3.641  1.00  0.00    +0.004 A 
ATOM      5  CD2 PHE A  31      34.928  16.768  -4.728  1.00  0.00    +0.004 A 
ATOM      6  CE1 PHE A  31      33.284  15.951  -2.635  1.00  0.00    +0.000 A 
ATOM      7  CE2 PHE A  31      35.441  15.924  -3.739  1.00  0.00    +0.000 A 
ATOM      8  CZ  PHE A  31      34.595  15.516  -2.698  1.00  0.00    +0.000 A 
ENDBRANCH   2   3
ENDBRANCH   1   2
END_RES PHE A 31
BEGIN_RES GLN A 35
REMARK INDEX MAP 3 1 15 2 18 3 21 4 22 5 23 6 24 7 25 8
ROOT
ATOM      9  CA  GLN A  35      27.076  21.284  -5.103  1.00  0.00    +0.171 C 
ENDROOT
BRANCH   9  10
ATOM     10  CB  GLN A  35      28.355  22.104  -5.102  1.00  0.00    +0.045 C 
BRANCH  10  11
ATOM     11  CG  GLN A  35      27.964  23.597  -4.945  1.00  0.00    +0.102 C 
BRANCH  11  12
ATOM     12  CD  GLN A  35      29.286  24.266  -5.288  1.00  0.00    +0.217 C 
ATOM     13  OE1 GLN A  35      29.934  24.953  -4.517  1.00  0.00    -0.275 OA
ATOM     14  NE2 GLN A  35      29.719  23.961  -6.504  1.00  0.00    -0.368 N 
ATOM     15 HE22 GLN A  35      30.606  24.355  -6.849  1.00  0.00    +0.159 HD
ATOM     16 HE21 GLN A  35      29.168  23.330  -7.103  1.00  0.00    +0.159 HD
ENDBRANCH  11  12
ENDBRANCH  10  11
ENDBRANCH   9  10
END_RES GLN A 35
