MODEL 1
REMARK VINA RESULT:   -10.367      0.000      0.000
REMARK INTER + INTRA:         -20.107
REMARK INTER:                 -15.821
REMARK INTRA:                  -4.286
REMARK UNBOUND:                -4.286
REMARK  Name = 126941
REMARK  10 active torsions:
REMARK  status: ('A' for Active; 'I' for Inactive)
REMARK    1  A    between atoms: N_6  and  C_16
REMARK    2  A    between atoms: N_6  and  C_18
REMARK    3  A    between atoms: N_6  and  C_27
REMARK    4  A    between atoms: N_7  and  CA_14
REMARK    5  A    between atoms: CA_14  and  CB_15
REMARK    6  A    between atoms: CA_14  and  C_23
REMARK    7  A    between atoms: CB_15  and  CG_17
REMARK    8  A    between atoms: CG_17  and  CD_28
REMARK    9  A    between atoms: C_18  and  C_26
REMARK   10  A    between atoms: C_19  and  C_20
REMARK                            x       y       z     vdW  Elec       q    Type
REMARK                         _______ _______ _______ _____ _____    ______ ____
ROOT
ATOM      1  N   UNL     1      30.185  14.920   1.303  1.00  0.00    -0.327 N 
ATOM      2  C   UNL     1      29.110  15.197   2.234  1.00  0.00    +0.001 C 
ENDROOT
BRANCH   1   3
ATOM      3  C   UNL     1      30.993  15.967   0.812  1.00  0.00    +0.030 A 
ATOM      4  C   UNL     1      32.591  18.037  -0.158  1.00  0.00    +0.037 A 
ATOM      5  C   UNL     1      32.331  16.054   1.198  1.00  0.00    -0.040 A 
ATOM      6  C   UNL     1      30.455  16.915  -0.058  1.00  0.00    -0.040 A 
ATOM      7  C   UNL     1      33.131  17.090   0.712  1.00  0.00    -0.048 A 
ATOM      8  C   UNL     1      31.253  17.949  -0.542  1.00  0.00    -0.048 A 
BRANCH   4  11
ATOM      9  O   UNL     1      34.627  19.183  -0.354  1.00  0.00    -0.270 OA
ATOM     10  N   UNL     1      32.818  20.045  -1.522  1.00  0.00    -0.298 N 
ATOM     11  C   ACE A   0      33.443  19.140  -0.675  1.00  0.00    +0.245 C 
ATOM     12  H   UNL     1      31.861  19.924  -1.720  1.00  0.00    +0.000 HD
BRANCH  10  13
ATOM     13  CA  UNL     1      33.516  21.153  -2.123  1.00  0.00    +0.121 C 
BRANCH  13  16
ATOM     14  O   UNL     1      31.521  22.130  -1.262  1.00  0.00    -0.479 OA
ATOM     15  OXT UNL     1      33.094  23.551  -2.071  1.00  0.00    -0.249 OA
ATOM     16  C   UNL     1      32.727  22.410  -1.821  1.00  0.00    +0.325 C 
ENDBRANCH  13  16
BRANCH  13  17
ATOM     17  CB  UNL     1      33.792  20.940  -3.617  1.00  0.00    -0.014 C 
BRANCH  17  18
ATOM     18  CG  UNL     1      32.563  20.962  -4.533  1.00  0.00    +0.047 C 
BRANCH  18  21
ATOM     19  OE1 UNL     1      31.878  22.934  -5.670  1.00  0.00    -0.481 OA
ATOM     20  OE2 UNL     1      33.511  21.704  -6.651  1.00  0.00    -0.251 OA
ATOM     21  CD  UNL     1      32.716  21.867  -5.738  1.00  0.00    +0.305 C 
ENDBRANCH  18  21
ENDBRANCH  17  18
ENDBRANCH  13  17
ENDBRANCH  10  13
ENDBRANCH   4  11
ENDBRANCH   1   3
BRANCH   1  22
ATOM     22  C   UNL     1      30.410  13.555   0.871  1.00  0.00    +0.056 C 
BRANCH  22  29
ATOM     23  N   UNL     1      28.619  13.218  -0.750  1.00  0.00    -0.242 NA
ATOM     24  N   UNL     1      30.411  13.179  -2.859  1.00  0.00    -0.232 NA
ATOM     25  N   UNL     1      28.670  12.860  -4.352  1.00  0.00    -0.193 NA
ATOM     26  N   UNL     1      26.402  12.718  -3.588  1.00  0.00    -0.198 NA
ATOM     27  N   UNL     1      25.932  12.905  -1.279  1.00  0.00    -0.341 N 
ATOM     28  N   UNL     1      26.907  12.537  -5.867  1.00  0.00    -0.327 N 
ATOM     29  C   UNL     1      29.937  13.366  -0.544  1.00  0.00    +0.077 A 
ATOM     30  C   UNL     1      30.823  13.347  -1.587  1.00  0.00    +0.053 A 
ATOM     31  C   UNL     1      28.210  13.051  -2.022  1.00  0.00    +0.148 A 
ATOM     32  C   UNL     1      29.103  13.028  -3.096  1.00  0.00    +0.185 A 
ATOM     33  C   UNL     1      26.876  12.889  -2.340  1.00  0.00    +0.149 A 
ATOM     34  C   UNL     1      27.345  12.714  -4.536  1.00  0.00    +0.216 A 
ATOM     35  H   UNL     1      24.973  12.793  -1.472  1.00  0.00    +0.000 HD
ATOM     36  H   UNL     1      26.237  13.027  -0.351  1.00  0.00    +0.000 HD
ATOM     37  H   UNL     1      27.561  12.526  -6.602  1.00  0.00    +0.000 HD
ATOM     38  H   UNL     1      25.949  12.425  -6.059  1.00  0.00    +0.000 HD
ENDBRANCH  22  29
ENDBRANCH   1  22
TORSDOF 9
BEGIN_RES PHE A 31
REMARK INDEX MAP 3 1 15 2 18 3 19 4 20 5 22 6 23 7 26 8
ROOT
ATOM      1  CA  PHE A  31      31.820  17.581  -6.484  1.00  0.00    +0.175 C 
ENDROOT
BRANCH   1   2
ATOM      2  CB  PHE A  31      33.054  18.119  -5.730  1.00  0.00    +0.070 C 
BRANCH   2   3
ATOM      3  CG  PHE A  31      33.486  17.294  -4.566  1.00  0.00    -0.045 A 
ATOM      4  CD1 PHE A  31      34.756  17.410  -4.041  1.00  0.00    +0.004 A 
ATOM      5  CD2 PHE A  31      32.598  16.381  -3.966  1.00  0.00    +0.004 A 
ATOM      6  CE1 PHE A  31      35.190  16.630  -2.982  1.00  0.00    +0.000 A 
ATOM      7  CE2 PHE A  31      33.001  15.596  -2.882  1.00  0.00    +0.000 A 
ATOM      8  CZ  PHE A  31      34.307  15.743  -2.394  1.00  0.00    +0.000 A 
ENDBRANCH   2   3
ENDBRANCH   1   2
END_RES PHE A 31
BEGIN_RES GLN A 35
REMARK INDEX MAP 3 1 15 2 18 3 21 4 22 5 23 6 24 7 25 8
ROOT
ATOM      9  CA  GLN A  35      27.076  21.284  -5.103  1.00  0.00    +0.171 C 
ENDROOT
BRANCH   9  10
ATOM     10  CB  GLN A  35      28.355  22.104  -5.102  1.00  0.00    +0.045 C 
BRANCH  10  11
ATOM     11  CG  GLN A  35      28.755  22.361  -3.625  1.00  0.00    +0.102 C 
BRANCH  11  12
ATOM     12  CD  GLN A  35      29.053  23.852  -3.676  1.00  0.00    +0.217 C 
ATOM     13  OE1 GLN A  35      28.223  24.715  -3.908  1.00  0.00    -0.275 OA
ATOM     14  NE2 GLN A  35      30.308  24.139  -3.358  1.00  0.00    -0.368 N 
ATOM     15 HE22 GLN A  35      30.628  25.118  -3.357  1.00  0.00    +0.159 HD
ATOM     16 HE21 GLN A  35      30.962  23.383  -3.113  1.00  0.00    +0.159 HD
ENDBRANCH  11  12
ENDBRANCH  10  11
ENDBRANCH   9  10
END_RES GLN A 35
ENDMDL
MODEL 2
REMARK VINA RESULT:   -10.226      1.313      1.978
REMARK INTER + INTRA:         -19.892
REMARK INTER:                 -15.386
REMARK INTRA:                  -4.506
REMARK UNBOUND:                -4.286
REMARK  Name = 126941
REMARK  10 active torsions:
REMARK  status: ('A' for Active; 'I' for Inactive)
REMARK    1  A    between atoms: N_6  and  C_16
REMARK    2  A    between atoms: N_6  and  C_18
REMARK    3  A    between atoms: N_6  and  C_27
REMARK    4  A    between atoms: N_7  and  CA_14
REMARK    5  A    between atoms: CA_14  and  CB_15
REMARK    6  A    between atoms: CA_14  and  C_23
REMARK    7  A    between atoms: CB_15  and  CG_17
REMARK    8  A    between atoms: CG_17  and  CD_28
REMARK    9  A    between atoms: C_18  and  C_26
REMARK   10  A    between atoms: C_19  and  C_20
REMARK                            x       y       z     vdW  Elec       q    Type
REMARK                         _______ _______ _______ _____ _____    ______ ____
ROOT
ATOM      1  N   UNL     1      30.154  15.168   1.315  1.00  0.00    -0.327 N 
ATOM      2  C   UNL     1      29.069  15.518   2.209  1.00  0.00    +0.001 C 
ENDROOT
BRANCH   1   3
ATOM      3  C   UNL     1      31.014  16.166   0.812  1.00  0.00    +0.030 A 
ATOM      4  C   UNL     1      32.715  18.139  -0.185  1.00  0.00    +0.037 A 
ATOM      5  C   UNL     1      32.373  16.138   1.126  1.00  0.00    -0.040 A 
ATOM      6  C   UNL     1      30.506  17.181   0.000  1.00  0.00    -0.040 A 
ATOM      7  C   UNL     1      33.225  17.125   0.627  1.00  0.00    -0.048 A 
ATOM      8  C   UNL     1      31.356  18.167  -0.497  1.00  0.00    -0.048 A 
BRANCH   4  11
ATOM      9  O   UNL     1      34.756  19.292  -0.256  1.00  0.00    -0.270 OA
ATOM     10  N   UNL     1      33.106  19.980  -1.736  1.00  0.00    -0.298 N 
ATOM     11  C   ACE A   0      33.622  19.190  -0.716  1.00  0.00    +0.245 C 
ATOM     12  H   UNL     1      32.183  19.819  -2.037  1.00  0.00    +0.000 HD
BRANCH  10  13
ATOM     13  CA  UNL     1      33.871  21.023  -2.369  1.00  0.00    +0.121 C 
BRANCH  13  16
ATOM     14  O   UNL     1      33.166  23.116  -3.263  1.00  0.00    -0.479 OA
ATOM     15  OXT UNL     1      32.587  22.669  -1.115  1.00  0.00    -0.249 OA
ATOM     16  C   UNL     1      33.131  22.328  -2.157  1.00  0.00    +0.325 C 
ENDBRANCH  13  16
BRANCH  13  17
ATOM     17  CB  UNL     1      34.183  20.721  -3.840  1.00  0.00    -0.014 C 
BRANCH  17  18
ATOM     18  CG  UNL     1      35.662  20.496  -4.177  1.00  0.00    +0.047 C 
BRANCH  18  21
ATOM     19  OE1 UNL     1      37.000  19.172  -2.725  1.00  0.00    -0.481 OA
ATOM     20  OE2 UNL     1      36.901  21.394  -2.281  1.00  0.00    -0.251 OA
ATOM     21  CD  UNL     1      36.563  20.437  -2.961  1.00  0.00    +0.305 C 
ENDBRANCH  18  21
ENDBRANCH  17  18
ENDBRANCH  13  17
ENDBRANCH  10  13
ENDBRANCH   4  11
ENDBRANCH   1   3
BRANCH   1  22
ATOM     22  C   UNL     1      30.336  13.781   0.934  1.00  0.00    +0.056 C 
BRANCH  22  29
ATOM     23  N   UNL     1      28.597  13.320  -0.713  1.00  0.00    -0.242 NA
ATOM     24  N   UNL     1      30.415  13.427  -2.797  1.00  0.00    -0.232 NA
ATOM     25  N   UNL     1      28.723  12.987  -4.316  1.00  0.00    -0.193 NA
ATOM     26  N   UNL     1      26.462  12.670  -3.584  1.00  0.00    -0.198 NA
ATOM     27  N   UNL     1      25.949  12.809  -1.281  1.00  0.00    -0.341 N 
ATOM     28  N   UNL     1      27.010  12.540  -5.856  1.00  0.00    -0.327 N 
ATOM     29  C   UNL     1      29.897  13.565  -0.489  1.00  0.00    +0.077 A 
ATOM     30  C   UNL     1      30.796  13.619  -1.519  1.00  0.00    +0.053 A 
ATOM     31  C   UNL     1      28.219  13.130  -1.991  1.00  0.00    +0.148 A 
ATOM     32  C   UNL     1      29.125  13.180  -3.053  1.00  0.00    +0.185 A 
ATOM     33  C   UNL     1      26.905  12.870  -2.329  1.00  0.00    +0.149 A 
ATOM     34  C   UNL     1      27.416  12.742  -4.519  1.00  0.00    +0.216 A 
ATOM     35  H   UNL     1      25.003  12.626  -1.488  1.00  0.00    +0.000 HD
ATOM     36  H   UNL     1      26.231  12.949  -0.348  1.00  0.00    +0.000 HD
ATOM     37  H   UNL     1      27.673  12.583  -6.583  1.00  0.00    +0.000 HD
ATOM     38  H   UNL     1      26.066  12.358  -6.062  1.00  0.00    +0.000 HD
ENDBRANCH  22  29
ENDBRANCH   1  22
TORSDOF 9
BEGIN_RES PHE A 31
REMARK INDEX MAP 3 1 15 2 18 3 19 4 20 5 22 6 23 7 26 8
ROOT
ATOM      1  CA  PHE A  31      31.820  17.581  -6.484  1.00  0.00    +0.175 C 
ENDROOT
BRANCH   1   2
ATOM      2  CB  PHE A  31      33.054  18.119  -5.730  1.00  0.00    +0.070 C 
BRANCH   2   3
ATOM      3  CG  PHE A  31      33.634  17.181  -4.726  1.00  0.00    -0.045 A 
ATOM      4  CD1 PHE A  31      34.979  16.876  -4.729  1.00  0.00    +0.004 A 
ATOM      5  CD2 PHE A  31      32.818  16.591  -3.742  1.00  0.00    +0.004 A 
ATOM      6  CE1 PHE A  31      35.533  15.982  -3.828  1.00  0.00    +0.000 A 
ATOM      7  CE2 PHE A  31      33.354  15.702  -2.806  1.00  0.00    +0.000 A 
ATOM      8  CZ  PHE A  31      34.725  15.415  -2.859  1.00  0.00    +0.000 A 
ENDBRANCH   2   3
ENDBRANCH   1   2
END_RES PHE A 31
BEGIN_RES GLN A 35
REMARK INDEX MAP 3 1 15 2 18 3 21 4 22 5 23 6 24 7 25 8
ROOT
ATOM      9  CA  GLN A  35      27.076  21.284  -5.103  1.00  0.00    +0.171 C 
ENDROOT
BRANCH   9  10
ATOM     10  CB  GLN A  35      28.355  22.104  -5.102  1.00  0.00    +0.045 C 
BRANCH  10  11
ATOM     11  CG  GLN A  35      28.860  22.198  -3.638  1.00  0.00    +0.102 C 
BRANCH  11  12
ATOM     12  CD  GLN A  35      30.126  21.360  -3.729  1.00  0.00    +0.217 C 
ATOM     13  OE1 GLN A  35      30.422  20.467  -2.953  1.00  0.00    -0.275 OA
ATOM     14  NE2 GLN A  35      30.857  21.643  -4.799  1.00  0.00    -0.368 N 
ATOM     15 HE22 GLN A  35      31.739  21.139  -4.969  1.00  0.00    +0.159 HD
ATOM     16 HE21 GLN A  35      30.541  22.366  -5.461  1.00  0.00    +0.159 HD
ENDBRANCH  11  12
ENDBRANCH  10  11
ENDBRANCH   9  10
END_RES GLN A 35
ENDMDL
MODEL 3
REMARK VINA RESULT:    -9.371      2.177      3.613
REMARK INTER + INTRA:         -18.587
REMARK INTER:                 -13.602
REMARK INTRA:                  -4.986
REMARK UNBOUND:                -4.286
REMARK  Name = 126941
REMARK  10 active torsions:
REMARK  status: ('A' for Active; 'I' for Inactive)
REMARK    1  A    between atoms: N_6  and  C_16
REMARK    2  A    between atoms: N_6  and  C_18
REMARK    3  A    between atoms: N_6  and  C_27
REMARK    4  A    between atoms: N_7  and  CA_14
REMARK    5  A    between atoms: CA_14  and  CB_15
REMARK    6  A    between atoms: CA_14  and  C_23
REMARK    7  A    between atoms: CB_15  and  CG_17
REMARK    8  A    between atoms: CG_17  and  CD_28
REMARK    9  A    between atoms: C_18  and  C_26
REMARK   10  A    between atoms: C_19  and  C_20
REMARK                            x       y       z     vdW  Elec       q    Type
REMARK                         _______ _______ _______ _____ _____    ______ ____
ROOT
ATOM      1  N   UNL     1      30.743  14.582   1.687  1.00  0.00    -0.327 N 
ATOM      2  C   UNL     1      29.867  15.492   2.398  1.00  0.00    +0.001 C 
ENDROOT
BRANCH   1   3
ATOM      3  C   UNL     1      32.042  14.986   1.315  1.00  0.00    +0.030 A 
ATOM      4  C   UNL     1      34.611  15.787   0.581  1.00  0.00    +0.037 A 
ATOM      5  C   UNL     1      32.245  16.246   0.752  1.00  0.00    -0.040 A 
ATOM      6  C   UNL     1      33.124  14.127   1.510  1.00  0.00    -0.040 A 
ATOM      7  C   UNL     1      33.531  16.647   0.384  1.00  0.00    -0.048 A 
ATOM      8  C   UNL     1      34.407  14.527   1.143  1.00  0.00    -0.048 A 
BRANCH   4  11
ATOM      9  O   UNL     1      36.947  15.738   0.778  1.00  0.00    -0.270 OA
ATOM     10  N   UNL     1      36.058  17.126  -0.855  1.00  0.00    -0.298 N 
ATOM     11  C   ACE A   0      35.980  16.214   0.190  1.00  0.00    +0.245 C 
ATOM     12  H   UNL     1      35.223  17.449  -1.263  1.00  0.00    +0.000 HD
BRANCH  10  13
ATOM     13  CA  UNL     1      37.313  17.615  -1.364  1.00  0.00    +0.121 C 
BRANCH  13  16
ATOM     14  O   UNL     1      36.131  19.581  -0.720  1.00  0.00    -0.479 OA
ATOM     15  OXT UNL     1      38.192  19.872  -1.625  1.00  0.00    -0.249 OA
ATOM     16  C   UNL     1      37.295  19.126  -1.254  1.00  0.00    +0.325 C 
ENDBRANCH  13  16
BRANCH  13  17
ATOM     17  CB  UNL     1      37.622  17.101  -2.775  1.00  0.00    -0.014 C 
BRANCH  17  18
ATOM     18  CG  UNL     1      36.509  17.293  -3.814  1.00  0.00    +0.047 C 
BRANCH  18  21
ATOM     19  OE1 UNL     1      34.725  15.889  -3.109  1.00  0.00    -0.481 OA
ATOM     20  OE2 UNL     1      35.814  15.283  -5.004  1.00  0.00    -0.251 OA
ATOM     21  CD  UNL     1      35.683  16.047  -4.059  1.00  0.00    +0.305 C 
ENDBRANCH  18  21
ENDBRANCH  17  18
ENDBRANCH  13  17
ENDBRANCH  10  13
ENDBRANCH   4  11
ENDBRANCH   1   3
BRANCH   1  22
ATOM     22  C   UNL     1      30.261  13.257   1.349  1.00  0.00    +0.056 C 
BRANCH  22  29
ATOM     23  N   UNL     1      28.599  13.045  -0.422  1.00  0.00    -0.242 NA
ATOM     24  N   UNL     1      30.540  13.201  -2.388  1.00  0.00    -0.232 NA
ATOM     25  N   UNL     1      28.917  12.996  -4.028  1.00  0.00    -0.193 NA
ATOM     26  N   UNL     1      26.601  12.769  -3.448  1.00  0.00    -0.198 NA
ATOM     27  N   UNL     1      25.962  12.755  -1.173  1.00  0.00    -0.341 N 
ATOM     28  N   UNL     1      27.274  12.788  -5.691  1.00  0.00    -0.327 N 
ATOM     29  C   UNL     1      29.895  13.186  -0.108  1.00  0.00    +0.077 A 
ATOM     30  C   UNL     1      30.855  13.263  -1.080  1.00  0.00    +0.053 A 
ATOM     31  C   UNL     1      28.286  12.983  -1.730  1.00  0.00    +0.148 A 
ATOM     32  C   UNL     1      29.254  13.060  -2.734  1.00  0.00    +0.185 A 
ATOM     33  C   UNL     1      26.980  12.838  -2.159  1.00  0.00    +0.149 A 
ATOM     34  C   UNL     1      27.611  12.854  -4.321  1.00  0.00    +0.216 A 
ATOM     35  H   UNL     1      25.021  12.652  -1.445  1.00  0.00    +0.000 HD
ATOM     36  H   UNL     1      26.196  12.801  -0.218  1.00  0.00    +0.000 HD
ATOM     37  H   UNL     1      27.980  12.846  -6.374  1.00  0.00    +0.000 HD
ATOM     38  H   UNL     1      26.334  12.684  -5.961  1.00  0.00    +0.000 HD
ENDBRANCH  22  29
ENDBRANCH   1  22
TORSDOF 9
BEGIN_RES PHE A 31
REMARK INDEX MAP 3 1 15 2 18 3 19 4 20 5 22 6 23 7 26 8
ROOT
ATOM      1  CA  PHE A  31      31.820  17.581  -6.484  1.00  0.00    +0.175 C 
ENDROOT
BRANCH   1   2
ATOM      2  CB  PHE A  31      33.054  18.119  -5.730  1.00  0.00    +0.070 C 
BRANCH   2   3
ATOM      3  CG  PHE A  31      32.807  18.490  -4.307  1.00  0.00    -0.045 A 
ATOM      4  CD1 PHE A  31      31.798  17.894  -3.579  1.00  0.00    +0.004 A 
ATOM      5  CD2 PHE A  31      33.610  19.454  -3.668  1.00  0.00    +0.004 A 
ATOM      6  CE1 PHE A  31      31.529  18.247  -2.267  1.00  0.00    +0.000 A 
ATOM      7  CE2 PHE A  31      33.376  19.813  -2.338  1.00  0.00    +0.000 A 
ATOM      8  CZ  PHE A  31      32.329  19.188  -1.646  1.00  0.00    +0.000 A 
ENDBRANCH   2   3
ENDBRANCH   1   2
END_RES PHE A 31
BEGIN_RES GLN A 35
REMARK INDEX MAP 3 1 15 2 18 3 21 4 22 5 23 6 24 7 25 8
ROOT
ATOM      9  CA  GLN A  35      27.076  21.284  -5.103  1.00  0.00    +0.171 C 
ENDROOT
BRANCH   9  10
ATOM     10  CB  GLN A  35      28.355  22.104  -5.102  1.00  0.00    +0.045 C 
BRANCH  10  11
ATOM     11  CG  GLN A  35      28.533  22.708  -3.684  1.00  0.00    +0.102 C 
BRANCH  11  12
ATOM     12  CD  GLN A  35      29.520  21.718  -3.085  1.00  0.00    +0.217 C 
ATOM     13  OE1 GLN A  35      29.470  21.297  -1.942  1.00  0.00    -0.275 OA
ATOM     14  NE2 GLN A  35      30.414  21.285  -3.963  1.00  0.00    -0.368 N 
ATOM     15 HE22 GLN A  35      31.136  20.609  -3.673  1.00  0.00    +0.159 HD
ATOM     16 HE21 GLN A  35      30.387  21.623  -4.935  1.00  0.00    +0.159 HD
ENDBRANCH  11  12
ENDBRANCH  10  11
ENDBRANCH   9  10
END_RES GLN A 35
ENDMDL
MODEL 4
REMARK VINA RESULT:    -9.171      3.801      8.579
REMARK INTER + INTRA:         -18.283
REMARK INTER:                 -13.769
REMARK INTRA:                  -4.514
REMARK UNBOUND:                -4.286
REMARK  Name = 126941
REMARK  10 active torsions:
REMARK  status: ('A' for Active; 'I' for Inactive)
REMARK    1  A    between atoms: N_6  and  C_16
REMARK    2  A    between atoms: N_6  and  C_18
REMARK    3  A    between atoms: N_6  and  C_27
REMARK    4  A    between atoms: N_7  and  CA_14
REMARK    5  A    between atoms: CA_14  and  CB_15
REMARK    6  A    between atoms: CA_14  and  C_23
REMARK    7  A    between atoms: CB_15  and  CG_17
REMARK    8  A    between atoms: CG_17  and  CD_28
REMARK    9  A    between atoms: C_18  and  C_26
REMARK   10  A    between atoms: C_19  and  C_20
REMARK                            x       y       z     vdW  Elec       q    Type
REMARK                         _______ _______ _______ _____ _____    ______ ____
ROOT
ATOM      1  N   UNL     1      34.098  20.328  -2.170  1.00  0.00    -0.327 N 
ATOM      2  C   UNL     1      35.525  20.102  -2.277  1.00  0.00    +0.001 C 
ENDROOT
BRANCH   1   3
ATOM      3  C   UNL     1      33.283  19.420  -1.462  1.00  0.00    +0.030 A 
ATOM      4  C   UNL     1      31.671  17.626  -0.061  1.00  0.00    +0.037 A 
ATOM      5  C   UNL     1      33.828  18.648  -0.436  1.00  0.00    -0.040 A 
ATOM      6  C   UNL     1      31.932  19.294  -1.788  1.00  0.00    -0.040 A 
ATOM      7  C   UNL     1      33.022  17.750   0.265  1.00  0.00    -0.048 A 
ATOM      8  C   UNL     1      31.127  18.397  -1.087  1.00  0.00    -0.048 A 
BRANCH   4  11
ATOM      9  O   UNL     1      29.776  17.074   1.206  1.00  0.00    -0.270 OA
ATOM     10  N   UNL     1      31.253  15.353   0.717  1.00  0.00    -0.298 N 
ATOM     11  C   ACE A   0      30.813  16.669   0.686  1.00  0.00    +0.245 C 
ATOM     12  H   UNL     1      32.099  15.127   0.269  1.00  0.00    +0.000 HD
BRANCH  10  13
ATOM     13  CA  UNL     1      30.518  14.306   1.380  1.00  0.00    +0.121 C 
BRANCH  13  16
ATOM     14  O   UNL     1      31.772  14.546   3.392  1.00  0.00    -0.479 OA
ATOM     15  OXT UNL     1      31.877  12.533   2.350  1.00  0.00    -0.249 OA
ATOM     16  C   UNL     1      31.440  13.675   2.403  1.00  0.00    +0.325 C 
ENDBRANCH  13  16
BRANCH  13  17
ATOM     17  CB  UNL     1      29.903  13.301   0.399  1.00  0.00    -0.014 C 
BRANCH  17  18
ATOM     18  CG  UNL     1      30.710  13.034  -0.878  1.00  0.00    +0.047 C 
BRANCH  18  21
ATOM     19  OE1 UNL     1      29.688  14.812  -2.080  1.00  0.00    -0.481 OA
ATOM     20  OE2 UNL     1      29.809  12.805  -3.130  1.00  0.00    -0.251 OA
ATOM     21  CD  UNL     1      30.020  13.496  -2.144  1.00  0.00    +0.305 C 
ENDBRANCH  18  21
ENDBRANCH  17  18
ENDBRANCH  13  17
ENDBRANCH  10  13
ENDBRANCH   4  11
ENDBRANCH   1   3
BRANCH   1  22
ATOM     22  C   UNL     1      33.517  21.490  -2.813  1.00  0.00    +0.056 C 
BRANCH  22  29
ATOM     23  N   UNL     1      34.980  22.524  -4.467  1.00  0.00    -0.242 NA
ATOM     24  N   UNL     1      33.960  20.939  -6.494  1.00  0.00    -0.232 NA
ATOM     25  N   UNL     1      35.373  21.957  -8.021  1.00  0.00    -0.193 NA
ATOM     26  N   UNL     1      36.890  23.683  -7.336  1.00  0.00    -0.198 NA
ATOM     27  N   UNL     1      36.948  24.357  -5.072  1.00  0.00    -0.341 N 
ATOM     28  N   UNL     1      36.803  22.987  -9.570  1.00  0.00    -0.327 N 
ATOM     29  C   UNL     1      34.020  21.618  -4.224  1.00  0.00    +0.077 A 
ATOM     30  C   UNL     1      33.517  20.834  -5.226  1.00  0.00    +0.053 A 
ATOM     31  C   UNL     1      35.422  22.627  -5.735  1.00  0.00    +0.148 A 
ATOM     32  C   UNL     1      34.916  21.835  -6.768  1.00  0.00    +0.185 A 
ATOM     33  C   UNL     1      36.405  23.530  -6.090  1.00  0.00    +0.149 A 
ATOM     34  C   UNL     1      36.334  22.872  -8.243  1.00  0.00    +0.216 A 
ATOM     35  H   UNL     1      37.652  25.010  -5.292  1.00  0.00    +0.000 HD
ATOM     36  H   UNL     1      36.621  24.277  -4.146  1.00  0.00    +0.000 HD
ATOM     37  H   UNL     1      36.427  22.413 -10.276  1.00  0.00    +0.000 HD
ATOM     38  H   UNL     1      37.505  23.640  -9.789  1.00  0.00    +0.000 HD
ENDBRANCH  22  29
ENDBRANCH   1  22
TORSDOF 9
BEGIN_RES PHE A 31
REMARK INDEX MAP 3 1 15 2 18 3 19 4 20 5 22 6 23 7 26 8
ROOT
ATOM      1  CA  PHE A  31      31.820  17.581  -6.484  1.00  0.00    +0.175 C 
ENDROOT
BRANCH   1   2
ATOM      2  CB  PHE A  31      33.054  18.119  -5.730  1.00  0.00    +0.070 C 
BRANCH   2   3
ATOM      3  CG  PHE A  31      33.517  17.267  -4.597  1.00  0.00    -0.045 A 
ATOM      4  CD1 PHE A  31      34.834  17.277  -4.189  1.00  0.00    +0.004 A 
ATOM      5  CD2 PHE A  31      32.611  16.439  -3.908  1.00  0.00    +0.004 A 
ATOM      6  CE1 PHE A  31      35.293  16.470  -3.161  1.00  0.00    +0.000 A 
ATOM      7  CE2 PHE A  31      33.041  15.630  -2.852  1.00  0.00    +0.000 A 
ATOM      8  CZ  PHE A  31      34.394  15.666  -2.485  1.00  0.00    +0.000 A 
ENDBRANCH   2   3
ENDBRANCH   1   2
END_RES PHE A 31
BEGIN_RES GLN A 35
REMARK INDEX MAP 3 1 15 2 18 3 21 4 22 5 23 6 24 7 25 8
ROOT
ATOM      9  CA  GLN A  35      27.076  21.284  -5.103  1.00  0.00    +0.171 C 
ENDROOT
BRANCH   9  10
ATOM     10  CB  GLN A  35      28.355  22.104  -5.102  1.00  0.00    +0.045 C 
BRANCH  10  11
ATOM     11  CG  GLN A  35      28.953  22.053  -3.671  1.00  0.00    +0.102 C 
BRANCH  11  12
ATOM     12  CD  GLN A  35      29.844  23.285  -3.701  1.00  0.00    +0.217 C 
ATOM     13  OE1 GLN A  35      29.748  24.226  -2.931  1.00  0.00    -0.275 OA
ATOM     14  NE2 GLN A  35      30.807  23.205  -4.608  1.00  0.00    -0.368 N 
ATOM     15 HE22 GLN A  35      31.475  23.981  -4.721  1.00  0.00    +0.159 HD
ATOM     16 HE21 GLN A  35      30.888  22.366  -5.200  1.00  0.00    +0.159 HD
ENDBRANCH  11  12
ENDBRANCH  10  11
ENDBRANCH   9  10
END_RES GLN A 35
ENDMDL
MODEL 5
REMARK VINA RESULT:    -9.169      2.909      4.631
REMARK INTER + INTRA:         -18.280
REMARK INTER:                 -13.326
REMARK INTRA:                  -4.954
REMARK UNBOUND:                -4.286
REMARK  Name = 126941
REMARK  10 active torsions:
REMARK  status: ('A' for Active; 'I' for Inactive)
REMARK    1  A    between atoms: N_6  and  C_16
REMARK    2  A    between atoms: N_6  and  C_18
REMARK    3  A    between atoms: N_6  and  C_27
REMARK    4  A    between atoms: N_7  and  CA_14
REMARK    5  A    between atoms: CA_14  and  CB_15
REMARK    6  A    between atoms: CA_14  and  C_23
REMARK    7  A    between atoms: CB_15  and  CG_17
REMARK    8  A    between atoms: CG_17  and  CD_28
REMARK    9  A    between atoms: C_18  and  C_26
REMARK   10  A    between atoms: C_19  and  C_20
REMARK                            x       y       z     vdW  Elec       q    Type
REMARK                         _______ _______ _______ _____ _____    ______ ____
ROOT
ATOM      1  N   UNL     1      33.618  15.526   0.546  1.00  0.00    -0.327 N 
ATOM      2  C   UNL     1      33.959  14.260   1.163  1.00  0.00    +0.001 C 
ENDROOT
BRANCH   1   3
ATOM      3  C   UNL     1      34.379  16.022  -0.533  1.00  0.00    +0.030 A 
ATOM      4  C   UNL     1      35.882  17.002  -2.668  1.00  0.00    +0.037 A 
ATOM      5  C   UNL     1      34.302  15.403  -1.781  1.00  0.00    -0.040 A 
ATOM      6  C   UNL     1      35.208  17.129  -0.353  1.00  0.00    -0.040 A 
ATOM      7  C   UNL     1      35.054  15.894  -2.850  1.00  0.00    -0.048 A 
ATOM      8  C   UNL     1      35.959  17.619  -1.420  1.00  0.00    -0.048 A 
BRANCH   4  11
ATOM      9  O   UNL     1      36.462  17.102  -4.938  1.00  0.00    -0.270 OA
ATOM     10  N   UNL     1      37.628  18.492  -3.491  1.00  0.00    -0.298 N 
ATOM     11  C   ACE A   0      36.683  17.524  -3.806  1.00  0.00    +0.245 C 
ATOM     12  H   UNL     1      37.730  18.765  -2.552  1.00  0.00    +0.000 HD
BRANCH  10  13
ATOM     13  CA  UNL     1      38.463  19.112  -4.488  1.00  0.00    +0.121 C 
BRANCH  13  16
ATOM     14  O   UNL     1      40.568  17.994  -4.526  1.00  0.00    -0.479 OA
ATOM     15  OXT UNL     1      40.395  19.816  -3.183  1.00  0.00    -0.249 OA
ATOM     16  C   UNL     1      39.893  19.047  -3.993  1.00  0.00    +0.325 C 
ENDBRANCH  13  16
BRANCH  13  17
ATOM     17  CB  UNL     1      37.999  20.527  -4.855  1.00  0.00    -0.014 C 
BRANCH  17  18
ATOM     18  CG  UNL     1      36.783  21.052  -4.082  1.00  0.00    +0.047 C 
BRANCH  18  21
ATOM     19  OE1 UNL     1      36.043  22.440  -2.300  1.00  0.00    -0.481 OA
ATOM     20  OE2 UNL     1      38.230  22.599  -2.879  1.00  0.00    -0.251 OA
ATOM     21  CD  UNL     1      37.124  22.111  -3.055  1.00  0.00    +0.305 C 
ENDBRANCH  18  21
ENDBRANCH  17  18
ENDBRANCH  13  17
ENDBRANCH  10  13
ENDBRANCH   4  11
ENDBRANCH   1   3
BRANCH   1  22
ATOM     22  C   UNL     1      32.495  16.284   1.063  1.00  0.00    +0.056 C 
BRANCH  22  29
ATOM     23  N   UNL     1      31.017  15.044  -0.430  1.00  0.00    -0.242 NA
ATOM     24  N   UNL     1      29.093  14.785   1.542  1.00  0.00    -0.232 NA
ATOM     25  N   UNL     1      27.731  13.614   0.081  1.00  0.00    -0.193 NA
ATOM     26  N   UNL     1      28.429  13.176  -2.172  1.00  0.00    -0.198 NA
ATOM     27  N   UNL     1      30.535  13.950  -2.914  1.00  0.00    -0.341 N 
ATOM     28  N   UNL     1      26.350  12.427  -1.399  1.00  0.00    -0.327 N 
ATOM     29  C   UNL     1      31.204  15.560   0.794  1.00  0.00    +0.077 A 
ATOM     30  C   UNL     1      30.253  15.431   1.770  1.00  0.00    +0.053 A 
ATOM     31  C   UNL     1      29.857  14.399  -0.655  1.00  0.00    +0.148 A 
ATOM     32  C   UNL     1      28.877  14.261   0.330  1.00  0.00    +0.185 A 
ATOM     33  C   UNL     1      29.567  13.833  -1.882  1.00  0.00    +0.149 A 
ATOM     34  C   UNL     1      27.564  13.105  -1.154  1.00  0.00    +0.216 A 
ATOM     35  H   UNL     1      30.360  13.557  -3.799  1.00  0.00    +0.000 HD
ATOM     36  H   UNL     1      31.382  14.423  -2.743  1.00  0.00    +0.000 HD
ATOM     37  H   UNL     1      25.679  12.345  -0.683  1.00  0.00    +0.000 HD
ATOM     38  H   UNL     1      26.175  12.035  -2.284  1.00  0.00    +0.000 HD
ENDBRANCH  22  29
ENDBRANCH   1  22
TORSDOF 9
BEGIN_RES PHE A 31
REMARK INDEX MAP 3 1 15 2 18 3 19 4 20 5 22 6 23 7 26 8
ROOT
ATOM      1  CA  PHE A  31      31.820  17.581  -6.484  1.00  0.00    +0.175 C 
ENDROOT
BRANCH   1   2
ATOM      2  CB  PHE A  31      33.054  18.119  -5.730  1.00  0.00    +0.070 C 
BRANCH   2   3
ATOM      3  CG  PHE A  31      32.813  18.464  -4.299  1.00  0.00    -0.045 A 
ATOM      4  CD1 PHE A  31      31.925  17.742  -3.531  1.00  0.00    +0.004 A 
ATOM      5  CD2 PHE A  31      33.501  19.534  -3.695  1.00  0.00    +0.004 A 
ATOM      6  CE1 PHE A  31      31.660  18.065  -2.210  1.00  0.00    +0.000 A 
ATOM      7  CE2 PHE A  31      33.272  19.868  -2.358  1.00  0.00    +0.000 A 
ATOM      8  CZ  PHE A  31      32.348  19.111  -1.624  1.00  0.00    +0.000 A 
ENDBRANCH   2   3
ENDBRANCH   1   2
END_RES PHE A 31
BEGIN_RES GLN A 35
REMARK INDEX MAP 3 1 15 2 18 3 21 4 22 5 23 6 24 7 25 8
ROOT
ATOM      9  CA  GLN A  35      27.076  21.284  -5.103  1.00  0.00    +0.171 C 
ENDROOT
BRANCH   9  10
ATOM     10  CB  GLN A  35      28.355  22.104  -5.102  1.00  0.00    +0.045 C 
BRANCH  10  11
ATOM     11  CG  GLN A  35      28.564  22.660  -3.669  1.00  0.00    +0.102 C 
BRANCH  11  12
ATOM     12  CD  GLN A  35      29.546  21.639  -3.117  1.00  0.00    +0.217 C 
ATOM     13  OE1 GLN A  35      29.554  21.240  -1.965  1.00  0.00    -0.275 OA
ATOM     14  NE2 GLN A  35      30.360  21.152  -4.044  1.00  0.00    -0.368 N 
ATOM     15 HE22 GLN A  35      31.071  20.451  -3.789  1.00  0.00    +0.159 HD
ATOM     16 HE21 GLN A  35      30.282  21.475  -5.019  1.00  0.00    +0.159 HD
ENDBRANCH  11  12
ENDBRANCH  10  11
ENDBRANCH   9  10
END_RES GLN A 35
ENDMDL
MODEL 6
REMARK VINA RESULT:    -8.817      1.982      3.235
REMARK INTER + INTRA:         -17.742
REMARK INTER:                 -13.222
REMARK INTRA:                  -4.520
REMARK UNBOUND:                -4.286
REMARK  Name = 126941
REMARK  10 active torsions:
REMARK  status: ('A' for Active; 'I' for Inactive)
REMARK    1  A    between atoms: N_6  and  C_16
REMARK    2  A    between atoms: N_6  and  C_18
REMARK    3  A    between atoms: N_6  and  C_27
REMARK    4  A    between atoms: N_7  and  CA_14
REMARK    5  A    between atoms: CA_14  and  CB_15
REMARK    6  A    between atoms: CA_14  and  C_23
REMARK    7  A    between atoms: CB_15  and  CG_17
REMARK    8  A    between atoms: CG_17  and  CD_28
REMARK    9  A    between atoms: C_18  and  C_26
REMARK   10  A    between atoms: C_19  and  C_20
REMARK                            x       y       z     vdW  Elec       q    Type
REMARK                         _______ _______ _______ _____ _____    ______ ____
ROOT
ATOM      1  N   UNL     1      32.915  16.514   0.635  1.00  0.00    -0.327 N 
ATOM      2  C   UNL     1      33.327  15.177   1.011  1.00  0.00    +0.001 C 
ENDROOT
BRANCH   1   3
ATOM      3  C   UNL     1      33.723  17.297  -0.215  1.00  0.00    +0.030 A 
ATOM      4  C   UNL     1      35.323  18.845  -1.897  1.00  0.00    +0.037 A 
ATOM      5  C   UNL     1      35.097  17.060  -0.284  1.00  0.00    -0.040 A 
ATOM      6  C   UNL     1      33.151  18.309  -0.987  1.00  0.00    -0.040 A 
ATOM      7  C   UNL     1      35.897  17.835  -1.125  1.00  0.00    -0.048 A 
ATOM      8  C   UNL     1      33.950  19.082  -1.827  1.00  0.00    -0.048 A 
BRANCH   4  11
ATOM      9  O   UNL     1      37.298  19.269  -3.087  1.00  0.00    -0.270 OA
ATOM     10  N   UNL     1      35.607  20.849  -3.256  1.00  0.00    -0.298 N 
ATOM     11  C   ACE A   0      36.175  19.670  -2.793  1.00  0.00    +0.245 C 
ATOM     12  H   UNL     1      34.698  21.083  -2.962  1.00  0.00    +0.000 HD
BRANCH  10  13
ATOM     13  CA  UNL     1      36.299  21.742  -4.151  1.00  0.00    +0.121 C 
BRANCH  13  16
ATOM     14  O   UNL     1      35.689  23.988  -4.662  1.00  0.00    -0.479 OA
ATOM     15  OXT UNL     1      36.229  23.535  -2.505  1.00  0.00    -0.249 OA
ATOM     16  C   UNL     1      36.068  23.155  -3.658  1.00  0.00    +0.325 C 
ENDBRANCH  13  16
BRANCH  13  17
ATOM     17  CB  UNL     1      35.910  21.528  -5.619  1.00  0.00    -0.014 C 
BRANCH  17  18
ATOM     18  CG  UNL     1      34.696  20.623  -5.864  1.00  0.00    +0.047 C 
BRANCH  18  21
ATOM     19  OE1 UNL     1      32.870  21.331  -4.516  1.00  0.00    -0.481 OA
ATOM     20  OE2 UNL     1      32.810  21.914  -6.707  1.00  0.00    -0.251 OA
ATOM     21  CD  UNL     1      33.368  21.346  -5.780  1.00  0.00    +0.305 C 
ENDBRANCH  18  21
ENDBRANCH  17  18
ENDBRANCH  13  17
ENDBRANCH  10  13
ENDBRANCH   4  11
ENDBRANCH   1   3
BRANCH   1  22
ATOM     22  C   UNL     1      31.670  17.042   1.155  1.00  0.00    +0.056 C 
BRANCH  22  29
ATOM     23  N   UNL     1      30.488  15.550  -0.370  1.00  0.00    -0.242 NA
ATOM     24  N   UNL     1      28.554  14.992   1.529  1.00  0.00    -0.232 NA
ATOM     25  N   UNL     1      27.474  13.587   0.038  1.00  0.00    -0.193 NA
ATOM     26  N   UNL     1      28.331  13.246  -2.176  1.00  0.00    -0.198 NA
ATOM     27  N   UNL     1      30.305  14.357  -2.849  1.00  0.00    -0.341 N 
ATOM     28  N   UNL     1      26.379  12.163  -1.472  1.00  0.00    -0.327 N 
ATOM     29  C   UNL     1      30.533  16.105   0.850  1.00  0.00    +0.077 A 
ATOM     30  C   UNL     1      29.577  15.829   1.789  1.00  0.00    +0.053 A 
ATOM     31  C   UNL     1      29.466  14.713  -0.628  1.00  0.00    +0.148 A 
ATOM     32  C   UNL     1      28.481  14.423   0.320  1.00  0.00    +0.185 A 
ATOM     33  C   UNL     1      29.328  14.091  -1.854  1.00  0.00    +0.149 A 
ATOM     34  C   UNL     1      27.448  13.041  -1.192  1.00  0.00    +0.216 A 
ATOM     35  H   UNL     1      30.237  13.929  -3.733  1.00  0.00    +0.000 HD
ATOM     36  H   UNL     1      31.051  14.970  -2.655  1.00  0.00    +0.000 HD
ATOM     37  H   UNL     1      25.701  11.977  -0.782  1.00  0.00    +0.000 HD
ATOM     38  H   UNL     1      26.311  11.736  -2.356  1.00  0.00    +0.000 HD
ENDBRANCH  22  29
ENDBRANCH   1  22
TORSDOF 9
BEGIN_RES PHE A 31
REMARK INDEX MAP 3 1 15 2 18 3 19 4 20 5 22 6 23 7 26 8
ROOT
ATOM      1  CA  PHE A  31      31.820  17.581  -6.484  1.00  0.00    +0.175 C 
ENDROOT
BRANCH   1   2
ATOM      2  CB  PHE A  31      33.054  18.119  -5.730  1.00  0.00    +0.070 C 
BRANCH   2   3
ATOM      3  CG  PHE A  31      33.810  17.095  -4.953  1.00  0.00    -0.045 A 
ATOM      4  CD1 PHE A  31      33.162  16.221  -4.106  1.00  0.00    +0.004 A 
ATOM      5  CD2 PHE A  31      35.208  16.990  -5.078  1.00  0.00    +0.004 A 
ATOM      6  CE1 PHE A  31      33.847  15.284  -3.349  1.00  0.00    +0.000 A 
ATOM      7  CE2 PHE A  31      35.923  16.039  -4.344  1.00  0.00    +0.000 A 
ATOM      8  CZ  PHE A  31      35.219  15.183  -3.486  1.00  0.00    +0.000 A 
ENDBRANCH   2   3
ENDBRANCH   1   2
END_RES PHE A 31
BEGIN_RES GLN A 35
REMARK INDEX MAP 3 1 15 2 18 3 21 4 22 5 23 6 24 7 25 8
ROOT
ATOM      9  CA  GLN A  35      27.076  21.284  -5.103  1.00  0.00    +0.171 C 
ENDROOT
BRANCH   9  10
ATOM     10  CB  GLN A  35      28.355  22.104  -5.102  1.00  0.00    +0.045 C 
BRANCH  10  11
ATOM     11  CG  GLN A  35      29.001  21.979  -3.697  1.00  0.00    +0.102 C 
BRANCH  11  12
ATOM     12  CD  GLN A  35      29.893  23.210  -3.692  1.00  0.00    +0.217 C 
ATOM     13  OE1 GLN A  35      30.061  23.939  -2.730  1.00  0.00    -0.275 OA
ATOM     14  NE2 GLN A  35      30.549  23.377  -4.833  1.00  0.00    -0.368 N 
ATOM     15 HE22 GLN A  35      31.185  24.179  -4.949  1.00  0.00    +0.159 HD
ATOM     16 HE21 GLN A  35      30.421  22.705  -5.603  1.00  0.00    +0.159 HD
ENDBRANCH  11  12
ENDBRANCH  10  11
ENDBRANCH   9  10
END_RES GLN A 35
ENDMDL
MODEL 7
REMARK VINA RESULT:    -8.605      3.905      8.841
REMARK INTER + INTRA:         -17.418
REMARK INTER:                 -13.026
REMARK INTRA:                  -4.392
REMARK UNBOUND:                -4.286
REMARK  Name = 126941
REMARK  10 active torsions:
REMARK  status: ('A' for Active; 'I' for Inactive)
REMARK    1  A    between atoms: N_6  and  C_16
REMARK    2  A    between atoms: N_6  and  C_18
REMARK    3  A    between atoms: N_6  and  C_27
REMARK    4  A    between atoms: N_7  and  CA_14
REMARK    5  A    between atoms: CA_14  and  CB_15
REMARK    6  A    between atoms: CA_14  and  C_23
REMARK    7  A    between atoms: CB_15  and  CG_17
REMARK    8  A    between atoms: CG_17  and  CD_28
REMARK    9  A    between atoms: C_18  and  C_26
REMARK   10  A    between atoms: C_19  and  C_20
REMARK                            x       y       z     vdW  Elec       q    Type
REMARK                         _______ _______ _______ _____ _____    ______ ____
ROOT
ATOM      1  N   UNL     1      33.245  20.939  -2.154  1.00  0.00    -0.327 N 
ATOM      2  C   UNL     1      32.905  22.294  -1.766  1.00  0.00    +0.001 C 
ENDROOT
BRANCH   1   3
ATOM      3  C   UNL     1      32.681  19.839  -1.475  1.00  0.00    +0.030 A 
ATOM      4  C   UNL     1      31.566  17.665  -0.131  1.00  0.00    +0.037 A 
ATOM      5  C   UNL     1      33.316  19.317  -0.348  1.00  0.00    -0.040 A 
ATOM      6  C   UNL     1      31.490  19.274  -1.930  1.00  0.00    -0.040 A 
ATOM      7  C   UNL     1      32.758  18.229   0.325  1.00  0.00    -0.048 A 
ATOM      8  C   UNL     1      30.933  18.187  -1.258  1.00  0.00    -0.048 A 
BRANCH   4  11
ATOM      9  O   UNL     1      29.910  16.652   1.185  1.00  0.00    -0.270 OA
ATOM     10  N   UNL     1      31.674  15.311   0.498  1.00  0.00    -0.298 N 
ATOM     11  C   ACE A   0      30.972  16.506   0.586  1.00  0.00    +0.245 C 
ATOM     12  H   UNL     1      32.518  15.295  -0.007  1.00  0.00    +0.000 HD
BRANCH  10  13
ATOM     13  CA  UNL     1      31.213  14.095   1.118  1.00  0.00    +0.121 C 
BRANCH  13  16
ATOM     14  O   UNL     1      31.837  14.516   3.379  1.00  0.00    -0.479 OA
ATOM     15  OXT UNL     1      33.088  13.010   2.231  1.00  0.00    -0.249 OA
ATOM     16  C   UNL     1      32.144  13.788   2.273  1.00  0.00    +0.325 C 
ENDBRANCH  13  16
BRANCH  13  17
ATOM     17  CB  UNL     1      31.065  12.940   0.120  1.00  0.00    -0.014 C 
BRANCH  17  18
ATOM     18  CG  UNL     1      30.679  13.339  -1.310  1.00  0.00    +0.047 C 
BRANCH  18  21
ATOM     19  OE1 UNL     1      28.916  12.941  -2.854  1.00  0.00    -0.481 OA
ATOM     20  OE2 UNL     1      28.316  13.524  -0.747  1.00  0.00    -0.251 OA
ATOM     21  CD  UNL     1      29.188  13.301  -1.573  1.00  0.00    +0.305 C 
ENDBRANCH  18  21
ENDBRANCH  17  18
ENDBRANCH  13  17
ENDBRANCH  10  13
ENDBRANCH   4  11
ENDBRANCH   1   3
BRANCH   1  22
ATOM     22  C   UNL     1      34.184  20.730  -3.239  1.00  0.00    +0.056 C 
BRANCH  22  29
ATOM     23  N   UNL     1      36.299  20.184  -2.155  1.00  0.00    -0.242 NA
ATOM     24  N   UNL     1      37.332  22.692  -2.702  1.00  0.00    -0.232 NA
ATOM     25  N   UNL     1      39.319  22.117  -1.660  1.00  0.00    -0.193 NA
ATOM     26  N   UNL     1      39.620  19.944  -0.693  1.00  0.00    -0.198 NA
ATOM     27  N   UNL     1      37.867  18.363  -0.802  1.00  0.00    -0.341 N 
ATOM     28  N   UNL     1      41.333  21.537  -0.605  1.00  0.00    -0.327 N 
ATOM     29  C   UNL     1      35.576  21.105  -2.810  1.00  0.00    +0.077 A 
ATOM     30  C   UNL     1      36.087  22.345  -3.081  1.00  0.00    +0.053 A 
ATOM     31  C   UNL     1      37.544  20.533  -1.778  1.00  0.00    +0.148 A 
ATOM     32  C   UNL     1      38.078  21.795  -2.046  1.00  0.00    +0.185 A 
ATOM     33  C   UNL     1      38.369  19.658  -1.098  1.00  0.00    +0.149 A 
ATOM     34  C   UNL     1      40.027  21.179  -1.005  1.00  0.00    +0.216 A 
ATOM     35  H   UNL     1      38.430  17.715  -0.320  1.00  0.00    +0.000 HD
ATOM     36  H   UNL     1      36.956  18.113  -1.081  1.00  0.00    +0.000 HD
ATOM     37  H   UNL     1      41.682  22.435  -0.810  1.00  0.00    +0.000 HD
ATOM     38  H   UNL     1      41.895  20.889  -0.122  1.00  0.00    +0.000 HD
ENDBRANCH  22  29
ENDBRANCH   1  22
TORSDOF 9
BEGIN_RES PHE A 31
REMARK INDEX MAP 3 1 15 2 18 3 19 4 20 5 22 6 23 7 26 8
ROOT
ATOM      1  CA  PHE A  31      31.820  17.581  -6.484  1.00  0.00    +0.175 C 
ENDROOT
BRANCH   1   2
ATOM      2  CB  PHE A  31      33.054  18.119  -5.730  1.00  0.00    +0.070 C 
BRANCH   2   3
ATOM      3  CG  PHE A  31      33.448  17.329  -4.528  1.00  0.00    -0.045 A 
ATOM      4  CD1 PHE A  31      32.609  16.373  -3.996  1.00  0.00    +0.004 A 
ATOM      5  CD2 PHE A  31      34.698  17.535  -3.915  1.00  0.00    +0.004 A 
ATOM      6  CE1 PHE A  31      32.940  15.651  -2.861  1.00  0.00    +0.000 A 
ATOM      7  CE2 PHE A  31      35.069  16.805  -2.782  1.00  0.00    +0.000 A 
ATOM      8  CZ  PHE A  31      34.173  15.854  -2.271  1.00  0.00    +0.000 A 
ENDBRANCH   2   3
ENDBRANCH   1   2
END_RES PHE A 31
BEGIN_RES GLN A 35
REMARK INDEX MAP 3 1 15 2 18 3 21 4 22 5 23 6 24 7 25 8
ROOT
ATOM      9  CA  GLN A  35      27.076  21.284  -5.103  1.00  0.00    +0.171 C 
ENDROOT
BRANCH   9  10
ATOM     10  CB  GLN A  35      28.355  22.104  -5.102  1.00  0.00    +0.045 C 
BRANCH  10  11
ATOM     11  CG  GLN A  35      28.950  22.058  -3.670  1.00  0.00    +0.102 C 
BRANCH  11  12
ATOM     12  CD  GLN A  35      29.729  23.364  -3.653  1.00  0.00    +0.217 C 
ATOM     13  OE1 GLN A  35      29.924  24.040  -2.657  1.00  0.00    -0.275 OA
ATOM     14  NE2 GLN A  35      30.257  23.666  -4.831  1.00  0.00    -0.368 N 
ATOM     15 HE22 GLN A  35      30.808  24.529  -4.943  1.00  0.00    +0.159 HD
ATOM     16 HE21 GLN A  35      30.115  23.037  -5.635  1.00  0.00    +0.159 HD
ENDBRANCH  11  12
ENDBRANCH  10  11
ENDBRANCH   9  10
END_RES GLN A 35
ENDMDL
MODEL 8
REMARK VINA RESULT:    -8.571      3.307      8.527
REMARK INTER + INTRA:         -17.367
REMARK INTER:                 -13.678
REMARK INTRA:                  -3.689
REMARK UNBOUND:                -4.286
REMARK  Name = 126941
REMARK  10 active torsions:
REMARK  status: ('A' for Active; 'I' for Inactive)
REMARK    1  A    between atoms: N_6  and  C_16
REMARK    2  A    between atoms: N_6  and  C_18
REMARK    3  A    between atoms: N_6  and  C_27
REMARK    4  A    between atoms: N_7  and  CA_14
REMARK    5  A    between atoms: CA_14  and  CB_15
REMARK    6  A    between atoms: CA_14  and  C_23
REMARK    7  A    between atoms: CB_15  and  CG_17
REMARK    8  A    between atoms: CG_17  and  CD_28
REMARK    9  A    between atoms: C_18  and  C_26
REMARK   10  A    between atoms: C_19  and  C_20
REMARK                            x       y       z     vdW  Elec       q    Type
REMARK                         _______ _______ _______ _____ _____    ______ ____
ROOT
ATOM      1  N   UNL     1      33.693  20.819  -2.145  1.00  0.00    -0.327 N 
ATOM      2  C   UNL     1      34.909  20.607  -2.904  1.00  0.00    +0.001 C 
ENDROOT
BRANCH   1   3
ATOM      3  C   UNL     1      33.055  19.737  -1.504  1.00  0.00    +0.030 A 
ATOM      4  C   UNL     1      31.791  17.597  -0.237  1.00  0.00    +0.037 A 
ATOM      5  C   UNL     1      31.789  19.327  -1.924  1.00  0.00    -0.040 A 
ATOM      6  C   UNL     1      33.687  19.078  -0.450  1.00  0.00    -0.040 A 
ATOM      7  C   UNL     1      31.157  18.256  -1.291  1.00  0.00    -0.048 A 
ATOM      8  C   UNL     1      33.056  18.008   0.183  1.00  0.00    -0.048 A 
BRANCH   4  11
ATOM      9  O   UNL     1      29.985  16.609   0.885  1.00  0.00    -0.270 OA
ATOM     10  N   UNL     1      31.837  15.269   0.487  1.00  0.00    -0.298 N 
ATOM     11  C   ACE A   0      31.118  16.456   0.437  1.00  0.00    +0.245 C 
ATOM     12  H   UNL     1      32.740  15.247   0.098  1.00  0.00    +0.000 HD
BRANCH  10  13
ATOM     13  CA  UNL     1      31.309  14.069   1.085  1.00  0.00    +0.121 C 
BRANCH  13  16
ATOM     14  O   UNL     1      31.754  14.506   3.385  1.00  0.00    -0.479 OA
ATOM     15  OXT UNL     1      33.079  12.978   2.354  1.00  0.00    -0.249 OA
ATOM     16  C   UNL     1      32.142  13.765   2.314  1.00  0.00    +0.325 C 
ENDBRANCH  13  16
BRANCH  13  17
ATOM     17  CB  UNL     1      31.220  12.903   0.094  1.00  0.00    -0.014 C 
BRANCH  17  18
ATOM     18  CG  UNL     1      30.378  13.157  -1.163  1.00  0.00    +0.047 C 
BRANCH  18  21
ATOM     19  OE1 UNL     1      28.151  13.222  -1.991  1.00  0.00    -0.481 OA
ATOM     20  OE2 UNL     1      28.433  13.656   0.217  1.00  0.00    -0.251 OA
ATOM     21  CD  UNL     1      28.909  13.388  -0.876  1.00  0.00    +0.305 C 
ENDBRANCH  18  21
ENDBRANCH  17  18
ENDBRANCH  13  17
ENDBRANCH  10  13
ENDBRANCH   4  11
ENDBRANCH   1   3
BRANCH   1  22
ATOM     22  C   UNL     1      33.134  22.154  -2.065  1.00  0.00    +0.056 C 
BRANCH  22  29
ATOM     23  N   UNL     1      32.388  22.683  -4.326  1.00  0.00    -0.242 NA
ATOM     24  N   UNL     1      34.547  24.362  -4.744  1.00  0.00    -0.232 NA
ATOM     25  N   UNL     1      33.790  24.828  -6.882  1.00  0.00    -0.193 NA
ATOM     26  N   UNL     1      31.778  23.830  -7.722  1.00  0.00    -0.198 NA
ATOM     27  N   UNL     1      30.547  22.351  -6.351  1.00  0.00    -0.341 N 
ATOM     28  N   UNL     1      33.026  25.301  -9.050  1.00  0.00    -0.327 N 
ATOM     29  C   UNL     1      33.311  22.877  -3.372  1.00  0.00    +0.077 A 
ATOM     30  C   UNL     1      34.378  23.708  -3.578  1.00  0.00    +0.053 A 
ATOM     31  C   UNL     1      32.558  23.338  -5.490  1.00  0.00    +0.148 A 
ATOM     32  C   UNL     1      33.644  24.188  -5.716  1.00  0.00    +0.185 A 
ATOM     33  C   UNL     1      31.665  23.205  -6.536  1.00  0.00    +0.149 A 
ATOM     34  C   UNL     1      32.854  24.619  -7.826  1.00  0.00    +0.216 A 
ATOM     35  H   UNL     1      29.891  22.235  -7.077  1.00  0.00    +0.000 HD
ATOM     36  H   UNL     1      30.427  21.874  -5.498  1.00  0.00    +0.000 HD
ATOM     37  H   UNL     1      33.801  25.894  -9.178  1.00  0.00    +0.000 HD
ATOM     38  H   UNL     1      32.370  25.184  -9.774  1.00  0.00    +0.000 HD
ENDBRANCH  22  29
ENDBRANCH   1  22
TORSDOF 9
BEGIN_RES PHE A 31
REMARK INDEX MAP 3 1 15 2 18 3 19 4 20 5 22 6 23 7 26 8
ROOT
ATOM      1  CA  PHE A  31      31.820  17.581  -6.484  1.00  0.00    +0.175 C 
ENDROOT
BRANCH   1   2
ATOM      2  CB  PHE A  31      33.054  18.119  -5.730  1.00  0.00    +0.070 C 
BRANCH   2   3
ATOM      3  CG  PHE A  31      33.504  17.279  -4.583  1.00  0.00    -0.045 A 
ATOM      4  CD1 PHE A  31      32.681  16.314  -4.040  1.00  0.00    +0.004 A 
ATOM      5  CD2 PHE A  31      34.789  17.445  -4.034  1.00  0.00    +0.004 A 
ATOM      6  CE1 PHE A  31      33.065  15.545  -2.954  1.00  0.00    +0.000 A 
ATOM      7  CE2 PHE A  31      35.212  16.668  -2.952  1.00  0.00    +0.000 A 
ATOM      8  CZ  PHE A  31      34.333  15.710  -2.427  1.00  0.00    +0.000 A 
ENDBRANCH   2   3
ENDBRANCH   1   2
END_RES PHE A 31
BEGIN_RES GLN A 35
REMARK INDEX MAP 3 1 15 2 18 3 21 4 22 5 23 6 24 7 25 8
ROOT
ATOM      9  CA  GLN A  35      27.076  21.284  -5.103  1.00  0.00    +0.171 C 
ENDROOT
BRANCH   9  10
ATOM     10  CB  GLN A  35      28.355  22.104  -5.102  1.00  0.00    +0.045 C 
BRANCH  10  11
ATOM     11  CG  GLN A  35      28.469  22.808  -3.724  1.00  0.00    +0.102 C 
BRANCH  11  12
ATOM     12  CD  GLN A  35      28.606  24.257  -4.165  1.00  0.00    +0.217 C 
ATOM     13  OE1 GLN A  35      29.668  24.829  -4.342  1.00  0.00    -0.275 OA
ATOM     14  NE2 GLN A  35      27.438  24.831  -4.424  1.00  0.00    -0.368 N 
ATOM     15 HE22 GLN A  35      27.404  25.813  -4.732  1.00  0.00    +0.159 HD
ATOM     16 HE21 GLN A  35      26.566  24.293  -4.317  1.00  0.00    +0.159 HD
ENDBRANCH  11  12
ENDBRANCH  10  11
ENDBRANCH   9  10
END_RES GLN A 35
ENDMDL
MODEL 9
REMARK VINA RESULT:    -8.514      3.483      8.812
REMARK INTER + INTRA:         -17.279
REMARK INTER:                 -13.033
REMARK INTRA:                  -4.246
REMARK UNBOUND:                -4.286
REMARK  Name = 126941
REMARK  10 active torsions:
REMARK  status: ('A' for Active; 'I' for Inactive)
REMARK    1  A    between atoms: N_6  and  C_16
REMARK    2  A    between atoms: N_6  and  C_18
REMARK    3  A    between atoms: N_6  and  C_27
REMARK    4  A    between atoms: N_7  and  CA_14
REMARK    5  A    between atoms: CA_14  and  CB_15
REMARK    6  A    between atoms: CA_14  and  C_23
REMARK    7  A    between atoms: CB_15  and  CG_17
REMARK    8  A    between atoms: CG_17  and  CD_28
REMARK    9  A    between atoms: C_18  and  C_26
REMARK   10  A    between atoms: C_19  and  C_20
REMARK                            x       y       z     vdW  Elec       q    Type
REMARK                         _______ _______ _______ _____ _____    ______ ____
ROOT
ATOM      1  N   UNL     1      33.956  21.000  -3.207  1.00  0.00    -0.327 N 
ATOM      2  C   UNL     1      34.177  22.330  -2.677  1.00  0.00    +0.001 C 
ENDROOT
BRANCH   1   3
ATOM      3  C   UNL     1      33.437  19.980  -2.383  1.00  0.00    +0.030 A 
ATOM      4  C   UNL     1      32.409  17.962  -0.754  1.00  0.00    +0.037 A 
ATOM      5  C   UNL     1      32.068  19.708  -2.390  1.00  0.00    -0.040 A 
ATOM      6  C   UNL     1      34.290  19.244  -1.561  1.00  0.00    -0.040 A 
ATOM      7  C   UNL     1      31.554  18.698  -1.575  1.00  0.00    -0.048 A 
ATOM      8  C   UNL     1      33.776  18.236  -0.747  1.00  0.00    -0.048 A 
BRANCH   4  11
ATOM      9  O   UNL     1      30.757  17.039   0.630  1.00  0.00    -0.270 OA
ATOM     10  N   UNL     1      32.654  15.757   0.256  1.00  0.00    -0.298 N 
ATOM     11  C   ACE A   0      31.861  16.887   0.114  1.00  0.00    +0.245 C 
ATOM     12  H   UNL     1      33.526  15.731  -0.200  1.00  0.00    +0.000 HD
BRANCH  10  13
ATOM     13  CA  UNL     1      32.249  14.621   1.044  1.00  0.00    +0.121 C 
BRANCH  13  16
ATOM     14  O   UNL     1      34.627  14.621   1.197  1.00  0.00    -0.479 OA
ATOM     15  OXT UNL     1      33.519  13.064   2.421  1.00  0.00    -0.249 OA
ATOM     16  C   UNL     1      33.499  14.012   1.647  1.00  0.00    +0.325 C 
ENDBRANCH  13  16
BRANCH  13  17
ATOM     17  CB  UNL     1      31.396  13.623   0.251  1.00  0.00    -0.014 C 
BRANCH  17  18
ATOM     18  CG  UNL     1      30.096  13.170   0.928  1.00  0.00    +0.047 C 
BRANCH  18  21
ATOM     19  OE1 UNL     1      28.625  13.664  -0.872  1.00  0.00    -0.481 OA
ATOM     20  OE2 UNL     1      28.141  14.610   1.132  1.00  0.00    -0.251 OA
ATOM     21  CD  UNL     1      28.866  13.907   0.443  1.00  0.00    +0.305 C 
ENDBRANCH  18  21
ENDBRANCH  17  18
ENDBRANCH  13  17
ENDBRANCH  10  13
ENDBRANCH   4  11
ENDBRANCH   1   3
BRANCH   1  22
ATOM     22  C   UNL     1      34.290  20.727  -4.591  1.00  0.00    +0.056 C 
BRANCH  22  29
ATOM     23  N   UNL     1      34.341  22.422  -6.344  1.00  0.00    -0.242 NA
ATOM     24  N   UNL     1      31.587  22.693  -6.288  1.00  0.00    -0.232 NA
ATOM     25  N   UNL     1      31.696  24.297  -7.954  1.00  0.00    -0.193 NA
ATOM     26  N   UNL     1      33.801  24.959  -8.892  1.00  0.00    -0.198 NA
ATOM     27  N   UNL     1      35.795  23.962  -8.108  1.00  0.00    -0.341 N 
ATOM     28  N   UNL     1      31.804  25.923  -9.642  1.00  0.00    -0.327 N 
ATOM     29  C   UNL     1      33.589  21.695  -5.503  1.00  0.00    +0.077 A 
ATOM     30  C   UNL     1      32.227  21.829  -5.476  1.00  0.00    +0.053 A 
ATOM     31  C   UNL     1      33.699  23.284  -7.155  1.00  0.00    +0.148 A 
ATOM     32  C   UNL     1      32.310  23.432  -7.137  1.00  0.00    +0.185 A 
ATOM     33  C   UNL     1      34.381  24.079  -8.056  1.00  0.00    +0.149 A 
ATOM     34  C   UNL     1      32.468  25.016  -8.789  1.00  0.00    +0.216 A 
ATOM     35  H   UNL     1      36.311  24.514  -8.740  1.00  0.00    +0.000 HD
ATOM     36  H   UNL     1      36.259  23.330  -7.512  1.00  0.00    +0.000 HD
ATOM     37  H   UNL     1      30.823  26.004  -9.607  1.00  0.00    +0.000 HD
ATOM     38  H   UNL     1      32.320  26.474 -10.273  1.00  0.00    +0.000 HD
ENDBRANCH  22  29
ENDBRANCH   1  22
TORSDOF 9
BEGIN_RES PHE A 31
REMARK INDEX MAP 3 1 15 2 18 3 19 4 20 5 22 6 23 7 26 8
ROOT
ATOM      1  CA  PHE A  31      31.820  17.581  -6.484  1.00  0.00    +0.175 C 
ENDROOT
BRANCH   1   2
ATOM      2  CB  PHE A  31      33.054  18.119  -5.730  1.00  0.00    +0.070 C 
BRANCH   2   3
ATOM      3  CG  PHE A  31      33.670  17.159  -4.770  1.00  0.00    -0.045 A 
ATOM      4  CD1 PHE A  31      35.031  17.144  -4.550  1.00  0.00    +0.004 A 
ATOM      5  CD2 PHE A  31      32.869  16.249  -4.054  1.00  0.00    +0.004 A 
ATOM      6  CE1 PHE A  31      35.628  16.239  -3.688  1.00  0.00    +0.000 A 
ATOM      7  CE2 PHE A  31      33.441  15.339  -3.161  1.00  0.00    +0.000 A 
ATOM      8  CZ  PHE A  31      34.832  15.355  -2.983  1.00  0.00    +0.000 A 
ENDBRANCH   2   3
ENDBRANCH   1   2
END_RES PHE A 31
BEGIN_RES GLN A 35
REMARK INDEX MAP 3 1 15 2 18 3 21 4 22 5 23 6 24 7 25 8
ROOT
ATOM      9  CA  GLN A  35      27.076  21.284  -5.103  1.00  0.00    +0.171 C 
ENDROOT
BRANCH   9  10
ATOM     10  CB  GLN A  35      28.355  22.104  -5.102  1.00  0.00    +0.045 C 
BRANCH  10  11
ATOM     11  CG  GLN A  35      28.944  22.067  -3.667  1.00  0.00    +0.102 C 
BRANCH  11  12
ATOM     12  CD  GLN A  35      29.495  23.480  -3.558  1.00  0.00    +0.217 C 
ATOM     13  OE1 GLN A  35      30.066  23.926  -2.578  1.00  0.00    -0.275 OA
ATOM     14  NE2 GLN A  35      29.366  24.173  -4.682  1.00  0.00    -0.368 N 
ATOM     15 HE22 GLN A  35      29.704  25.145  -4.730  1.00  0.00    +0.159 HD
ATOM     16 HE21 GLN A  35      28.928  23.738  -5.507  1.00  0.00    +0.159 HD
ENDBRANCH  11  12
ENDBRANCH  10  11
ENDBRANCH   9  10
END_RES GLN A 35
ENDMDL
