BEGIN_RES LEU A 22
REMARK INDEX MAP 3 1 15 2 18 3 20 4 21 5
ROOT
ATOM      1  CA  LEU A  22      35.718   8.629  -0.348  1.00  0.00    +0.172 C 
ENDROOT
BRANCH   1   2
ATOM      2  CB  LEU A  22      35.359   9.654  -1.473  1.00  0.00    +0.038 C 
BRANCH   2   3
ATOM      3  CG  LEU A  22      34.173  10.511  -1.077  1.00  0.00    -0.015 C 
ATOM      4  CD1 LEU A  22      34.157  11.861  -1.751  1.00  0.00    +0.007 C 
ATOM      5  CD2 LEU A  22      32.890   9.777  -1.476  1.00  0.00    +0.007 C 
ENDBRANCH   2   3
ENDBRANCH   1   2
END_RES LEU A 22
