BEGIN_RES GLN A 35
REMARK INDEX MAP 3 1 15 2 18 3 21 4 22 5 23 6 24 7 25 8
ROOT
ATOM      1  CA  GLN A  35      27.076  21.284  -5.103  1.00  0.00    +0.171 C 
ENDROOT
BRANCH   1   2
ATOM      2  CB  GLN A  35      28.355  22.104  -5.102  1.00  0.00    +0.045 C 
BRANCH   2   3
ATOM      3  CG  GLN A  35      27.964  23.597  -4.945  1.00  0.00    +0.102 C 
BRANCH   3   4
ATOM      4  CD  GLN A  35      29.286  24.266  -5.288  1.00  0.00    +0.217 C 
ATOM      5  OE1 GLN A  35      29.934  24.953  -4.517  1.00  0.00    -0.275 OA
ATOM      6  NE2 GLN A  35      29.719  23.961  -6.504  1.00  0.00    -0.368 N 
ATOM      7 HE22 GLN A  35      30.606  24.355  -6.849  1.00  0.00    +0.159 HD
ATOM      8 HE21 GLN A  35      29.168  23.330  -7.103  1.00  0.00    +0.159 HD
ENDBRANCH   3   4
ENDBRANCH   2   3
ENDBRANCH   1   2
END_RES GLN A 35
BEGIN_RES ASN A 64
REMARK INDEX MAP 3 1 15 2 18 3 19 4 20 5 21 6 22 7
ROOT
ATOM      9  CA  ASN A  64      33.819  23.789   3.403  1.00  0.00    +0.180 C 
ENDROOT
BRANCH   9  10
ATOM     10  CB  ASN A  64      33.949  22.635   2.399  1.00  0.00    +0.134 C 
BRANCH  10  11
ATOM     11  CG  ASN A  64      34.828  23.015   1.225  1.00  0.00    +0.220 C 
ATOM     12  OD1 ASN A  64      34.994  24.212   0.957  1.00  0.00    -0.275 OA
ATOM     13  ND2 ASN A  64      35.390  22.019   0.556  1.00  0.00    -0.368 N 
ATOM     14 HD22 ASN A  64      35.998  22.219  -0.251  1.00  0.00    +0.159 HD
ATOM     15 HD21 ASN A  64      35.219  21.045   0.843  1.00  0.00    +0.159 HD
ENDBRANCH  10  11
ENDBRANCH   9  10
END_RES ASN A 64
