MODEL 1
REMARK VINA RESULT:   -11.058      0.000      0.000
REMARK INTER + INTRA:         -18.417
REMARK INTER:                 -16.876
REMARK INTRA:                  -1.542
REMARK UNBOUND:                -1.542
REMARK  Name = 126941
REMARK  10 active torsions:
REMARK  status: ('A' for Active; 'I' for Inactive)
REMARK    1  A    between atoms: N_6  and  C_16
REMARK    2  A    between atoms: N_6  and  C_18
REMARK    3  A    between atoms: N_6  and  C_27
REMARK    4  A    between atoms: N_7  and  CA_14
REMARK    5  A    between atoms: CA_14  and  CB_15
REMARK    6  A    between atoms: CA_14  and  C_23
REMARK    7  A    between atoms: CB_15  and  CG_17
REMARK    8  A    between atoms: CG_17  and  CD_28
REMARK    9  A    between atoms: C_18  and  C_26
REMARK   10  A    between atoms: C_19  and  C_20
REMARK                            x       y       z     vdW  Elec       q    Type
REMARK                         _______ _______ _______ _____ _____    ______ ____
ROOT
ATOM      1  N   UNL     1      31.543  14.412   1.603  1.00  0.00    -0.327 N 
ATOM      2  C   UNL     1      32.674  13.775   2.248  1.00  0.00    +0.001 C 
ENDROOT
BRANCH   1   3
ATOM      3  C   UNL     1      31.644  15.737   1.130  1.00  0.00    +0.030 A 
ATOM      4  C   UNL     1      31.845  18.357   0.194  1.00  0.00    +0.037 A 
ATOM      5  C   UNL     1      32.900  16.305   0.913  1.00  0.00    -0.040 A 
ATOM      6  C   UNL     1      30.490  16.479   0.880  1.00  0.00    -0.040 A 
ATOM      7  C   UNL     1      33.000  17.616   0.444  1.00  0.00    -0.048 A 
ATOM      8  C   UNL     1      30.590  17.788   0.412  1.00  0.00    -0.048 A 
BRANCH   4  11
ATOM      9  O   UNL     1      32.404  20.621   0.436  1.00  0.00    -0.270 OA
ATOM     10  N   UNL     1      31.543  19.963  -1.615  1.00  0.00    -0.298 N 
ATOM     11  C   ACE A   0      31.953  19.752  -0.305  1.00  0.00    +0.245 C 
ATOM     12  H   UNL     1      31.196  19.200  -2.130  1.00  0.00    +0.000 HD
BRANCH  10  13
ATOM     13  CA  UNL     1      31.610  21.255  -2.249  1.00  0.00    +0.121 C 
BRANCH  13  16
ATOM     14  O   UNL     1      29.262  21.286  -1.845  1.00  0.00    -0.479 OA
ATOM     15  OXT UNL     1      30.389  23.226  -1.503  1.00  0.00    -0.249 OA
ATOM     16  C   UNL     1      30.391  22.042  -1.815  1.00  0.00    +0.325 C 
ENDBRANCH  13  16
BRANCH  13  17
ATOM     17  CB  UNL     1      31.777  21.161  -3.771  1.00  0.00    -0.014 C 
BRANCH  17  18
ATOM     18  CG  UNL     1      33.130  21.623  -4.324  1.00  0.00    +0.047 C 
BRANCH  18  21
ATOM     19  OE1 UNL     1      31.988  22.286  -6.301  1.00  0.00    -0.481 OA
ATOM     20  OE2 UNL     1      34.102  21.506  -6.556  1.00  0.00    -0.251 OA
ATOM     21  CD  UNL     1      33.154  21.772  -5.831  1.00  0.00    +0.305 C 
ENDBRANCH  18  21
ENDBRANCH  17  18
ENDBRANCH  13  17
ENDBRANCH  10  13
ENDBRANCH   4  11
ENDBRANCH   1   3
BRANCH   1  22
ATOM     22  C   UNL     1      30.302  13.675   1.465  1.00  0.00    +0.056 C 
BRANCH  22  29
ATOM     23  N   UNL     1      28.684  13.268  -0.314  1.00  0.00    -0.242 NA
ATOM     24  N   UNL     1      30.661  13.322  -2.250  1.00  0.00    -0.232 NA
ATOM     25  N   UNL     1      29.080  12.934  -3.897  1.00  0.00    -0.193 NA
ATOM     26  N   UNL     1      26.760  12.685  -3.344  1.00  0.00    -0.198 NA
ATOM     27  N   UNL     1      26.074  12.837  -1.088  1.00  0.00    -0.341 N 
ATOM     28  N   UNL     1      27.480  12.541  -5.567  1.00  0.00    -0.327 N 
ATOM     29  C   UNL     1      29.969  13.474   0.012  1.00  0.00    +0.077 A 
ATOM     30  C   UNL     1      30.946  13.501  -0.945  1.00  0.00    +0.053 A 
ATOM     31  C   UNL     1      28.401  13.090  -1.618  1.00  0.00    +0.148 A 
ATOM     32  C   UNL     1      29.388  13.114  -2.606  1.00  0.00    +0.185 A 
ATOM     33  C   UNL     1      27.110  12.870  -2.058  1.00  0.00    +0.149 A 
ATOM     34  C   UNL     1      27.786  12.729  -4.202  1.00  0.00    +0.216 A 
ATOM     35  H   UNL     1      25.142  12.684  -1.368  1.00  0.00    +0.000 HD
ATOM     36  H   UNL     1      26.286  12.968  -0.135  1.00  0.00    +0.000 HD
ATOM     37  H   UNL     1      28.198  12.564  -6.240  1.00  0.00    +0.000 HD
ATOM     38  H   UNL     1      26.549  12.387  -5.846  1.00  0.00    +0.000 HD
ENDBRANCH  22  29
ENDBRANCH   1  22
TORSDOF 9
BEGIN_RES LEU A 22
REMARK INDEX MAP 3 1 15 2 18 3 20 4 21 5
ROOT
ATOM      1  CA  LEU A  22      35.718   8.629  -0.348  1.00  0.00    +0.172 C 
ENDROOT
BRANCH   1   2
ATOM      2  CB  LEU A  22      35.359   9.654  -1.473  1.00  0.00    +0.038 C 
BRANCH   2   3
ATOM      3  CG  LEU A  22      33.881   9.989  -1.459  1.00  0.00    -0.015 C 
ATOM      4  CD1 LEU A  22      33.403  10.539  -0.137  1.00  0.00    +0.007 C 
ATOM      5  CD2 LEU A  22      33.615  11.053  -2.528  1.00  0.00    +0.007 C 
ENDBRANCH   2   3
ENDBRANCH   1   2
END_RES LEU A 22
ENDMDL
MODEL 2
REMARK VINA RESULT:   -10.600      1.387      2.812
REMARK INTER + INTRA:         -17.719
REMARK INTER:                 -16.682
REMARK INTRA:                  -1.037
REMARK UNBOUND:                -1.542
REMARK  Name = 126941
REMARK  10 active torsions:
REMARK  status: ('A' for Active; 'I' for Inactive)
REMARK    1  A    between atoms: N_6  and  C_16
REMARK    2  A    between atoms: N_6  and  C_18
REMARK    3  A    between atoms: N_6  and  C_27
REMARK    4  A    between atoms: N_7  and  CA_14
REMARK    5  A    between atoms: CA_14  and  CB_15
REMARK    6  A    between atoms: CA_14  and  C_23
REMARK    7  A    between atoms: CB_15  and  CG_17
REMARK    8  A    between atoms: CG_17  and  CD_28
REMARK    9  A    between atoms: C_18  and  C_26
REMARK   10  A    between atoms: C_19  and  C_20
REMARK                            x       y       z     vdW  Elec       q    Type
REMARK                         _______ _______ _______ _____ _____    ______ ____
ROOT
ATOM      1  N   UNL     1      31.356  14.573   1.707  1.00  0.00    -0.327 N 
ATOM      2  C   UNL     1      32.437  13.926   2.423  1.00  0.00    +0.001 C 
ENDROOT
BRANCH   1   3
ATOM      3  C   UNL     1      31.518  15.876   1.194  1.00  0.00    +0.030 A 
ATOM      4  C   UNL     1      31.838  18.455   0.180  1.00  0.00    +0.037 A 
ATOM      5  C   UNL     1      30.397  16.657   0.909  1.00  0.00    -0.040 A 
ATOM      6  C   UNL     1      32.798  16.385   0.971  1.00  0.00    -0.040 A 
ATOM      7  C   UNL     1      30.557  17.948   0.402  1.00  0.00    -0.048 A 
ATOM      8  C   UNL     1      32.957  17.673   0.464  1.00  0.00    -0.048 A 
BRANCH   4  11
ATOM      9  O   UNL     1      33.091  20.394  -0.231  1.00  0.00    -0.270 OA
ATOM     10  N   UNL     1      30.904  20.370  -1.005  1.00  0.00    -0.298 N 
ATOM     11  C   ACE A   0      32.008  19.829  -0.360  1.00  0.00    +0.245 C 
ATOM     12  H   UNL     1      30.079  19.837  -1.056  1.00  0.00    +0.000 HD
BRANCH  10  13
ATOM     13  CA  UNL     1      30.922  21.682  -1.602  1.00  0.00    +0.121 C 
BRANCH  13  16
ATOM     14  O   UNL     1      31.956  22.727  -3.477  1.00  0.00    -0.479 OA
ATOM     15  OXT UNL     1      31.519  20.506  -3.650  1.00  0.00    -0.249 OA
ATOM     16  C   UNL     1      31.494  21.542  -2.997  1.00  0.00    +0.325 C 
ENDBRANCH  13  16
BRANCH  13  17
ATOM     17  CB  UNL     1      31.648  22.718  -0.736  1.00  0.00    -0.014 C 
BRANCH  17  18
ATOM     18  CG  UNL     1      30.753  23.599   0.145  1.00  0.00    +0.047 C 
BRANCH  18  21
ATOM     19  OE1 UNL     1      30.792  25.470   1.610  1.00  0.00    -0.481 OA
ATOM     20  OE2 UNL     1      32.311  25.459  -0.074  1.00  0.00    -0.251 OA
ATOM     21  CD  UNL     1      31.376  24.930   0.508  1.00  0.00    +0.305 C 
ENDBRANCH  18  21
ENDBRANCH  17  18
ENDBRANCH  13  17
ENDBRANCH  10  13
ENDBRANCH   4  11
ENDBRANCH   1   3
BRANCH   1  22
ATOM     22  C   UNL     1      30.100  13.868   1.539  1.00  0.00    +0.056 C 
BRANCH  22  29
ATOM     23  N   UNL     1      28.549  13.369  -0.275  1.00  0.00    -0.242 NA
ATOM     24  N   UNL     1      30.566  13.525  -2.164  1.00  0.00    -0.232 NA
ATOM     25  N   UNL     1      29.047  13.048  -3.846  1.00  0.00    -0.193 NA
ATOM     26  N   UNL     1      26.732  12.675  -3.347  1.00  0.00    -0.198 NA
ATOM     27  N   UNL     1      25.985  12.795  -1.109  1.00  0.00    -0.341 N 
ATOM     28  N   UNL     1      27.511  12.563  -5.553  1.00  0.00    -0.327 N 
ATOM     29  C   UNL     1      29.813  13.645   0.080  1.00  0.00    +0.077 A 
ATOM     30  C   UNL     1      30.810  13.723  -0.854  1.00  0.00    +0.053 A 
ATOM     31  C   UNL     1      28.307  13.173  -1.585  1.00  0.00    +0.148 A 
ATOM     32  C   UNL     1      29.314  13.247  -2.550  1.00  0.00    +0.185 A 
ATOM     33  C   UNL     1      27.040  12.882  -2.054  1.00  0.00    +0.149 A 
ATOM     34  C   UNL     1      27.773  12.772  -4.181  1.00  0.00    +0.216 A 
ATOM     35  H   UNL     1      25.070  12.591  -1.410  1.00  0.00    +0.000 HD
ATOM     36  H   UNL     1      26.167  12.940  -0.152  1.00  0.00    +0.000 HD
ATOM     37  H   UNL     1      28.242  12.624  -6.208  1.00  0.00    +0.000 HD
ATOM     38  H   UNL     1      26.596  12.359  -5.853  1.00  0.00    +0.000 HD
ENDBRANCH  22  29
ENDBRANCH   1  22
TORSDOF 9
BEGIN_RES LEU A 22
REMARK INDEX MAP 3 1 15 2 18 3 20 4 21 5
ROOT
ATOM      1  CA  LEU A  22      35.718   8.629  -0.348  1.00  0.00    +0.172 C 
ENDROOT
BRANCH   1   2
ATOM      2  CB  LEU A  22      35.359   9.654  -1.473  1.00  0.00    +0.038 C 
BRANCH   2   3
ATOM      3  CG  LEU A  22      33.868   9.923  -1.515  1.00  0.00    -0.015 C 
ATOM      4  CD1 LEU A  22      33.298  10.352  -0.185  1.00  0.00    +0.007 C 
ATOM      5  CD2 LEU A  22      33.607  11.050  -2.518  1.00  0.00    +0.007 C 
ENDBRANCH   2   3
ENDBRANCH   1   2
END_RES LEU A 22
ENDMDL
MODEL 3
REMARK VINA RESULT:   -10.563      1.462      1.755
REMARK INTER + INTRA:         -17.662
REMARK INTER:                 -14.937
REMARK INTRA:                  -2.725
REMARK UNBOUND:                -1.542
REMARK  Name = 126941
REMARK  10 active torsions:
REMARK  status: ('A' for Active; 'I' for Inactive)
REMARK    1  A    between atoms: N_6  and  C_16
REMARK    2  A    between atoms: N_6  and  C_18
REMARK    3  A    between atoms: N_6  and  C_27
REMARK    4  A    between atoms: N_7  and  CA_14
REMARK    5  A    between atoms: CA_14  and  CB_15
REMARK    6  A    between atoms: CA_14  and  C_23
REMARK    7  A    between atoms: CB_15  and  CG_17
REMARK    8  A    between atoms: CG_17  and  CD_28
REMARK    9  A    between atoms: C_18  and  C_26
REMARK   10  A    between atoms: C_19  and  C_20
REMARK                            x       y       z     vdW  Elec       q    Type
REMARK                         _______ _______ _______ _____ _____    ______ ____
ROOT
ATOM      1  N   UNL     1      30.197  14.832   1.622  1.00  0.00    -0.327 N 
ATOM      2  C   UNL     1      29.160  14.975   2.624  1.00  0.00    +0.001 C 
ENDROOT
BRANCH   1   3
ATOM      3  C   UNL     1      30.877  15.966   1.131  1.00  0.00    +0.030 A 
ATOM      4  C   UNL     1      32.223  18.208   0.161  1.00  0.00    +0.037 A 
ATOM      5  C   UNL     1      32.268  16.032   1.211  1.00  0.00    -0.040 A 
ATOM      6  C   UNL     1      30.160  17.020   0.567  1.00  0.00    -0.040 A 
ATOM      7  C   UNL     1      32.942  17.154   0.725  1.00  0.00    -0.048 A 
ATOM      8  C   UNL     1      30.832  18.141   0.082  1.00  0.00    -0.048 A 
BRANCH   4  11
ATOM      9  O   UNL     1      34.153  19.495  -0.183  1.00  0.00    -0.270 OA
ATOM     10  N   UNL     1      32.164  20.332  -1.035  1.00  0.00    -0.298 N 
ATOM     11  C   ACE A   0      32.941  19.402  -0.357  1.00  0.00    +0.245 C 
ATOM     12  H   UNL     1      31.198  20.167  -1.122  1.00  0.00    +0.000 HD
BRANCH  10  13
ATOM     13  CA  UNL     1      32.718  21.528  -1.615  1.00  0.00    +0.121 C 
BRANCH  13  16
ATOM     14  O   UNL     1      32.523  23.889  -1.356  1.00  0.00    -0.479 OA
ATOM     15  OXT UNL     1      30.844  22.620  -0.507  1.00  0.00    -0.249 OA
ATOM     16  C   UNL     1      31.909  22.703  -1.106  1.00  0.00    +0.325 C 
ENDBRANCH  13  16
BRANCH  13  17
ATOM     17  CB  UNL     1      32.811  21.458  -3.144  1.00  0.00    -0.014 C 
BRANCH  17  18
ATOM     18  CG  UNL     1      34.187  21.092  -3.714  1.00  0.00    +0.047 C 
BRANCH  18  21
ATOM     19  OE1 UNL     1      35.348  23.096  -3.183  1.00  0.00    -0.481 OA
ATOM     20  OE2 UNL     1      36.159  21.177  -2.286  1.00  0.00    -0.251 OA
ATOM     21  CD  UNL     1      35.342  21.752  -2.991  1.00  0.00    +0.305 C 
ENDBRANCH  18  21
ENDBRANCH  17  18
ENDBRANCH  13  17
ENDBRANCH  10  13
ENDBRANCH   4  11
ENDBRANCH   1   3
BRANCH   1  22
ATOM     22  C   UNL     1      30.515  13.510   1.119  1.00  0.00    +0.056 C 
BRANCH  22  29
ATOM     23  N   UNL     1      28.779  13.164  -0.558  1.00  0.00    -0.242 NA
ATOM     24  N   UNL     1      30.612  13.342  -2.625  1.00  0.00    -0.232 NA
ATOM     25  N   UNL     1      28.922  13.010  -4.172  1.00  0.00    -0.193 NA
ATOM     26  N   UNL     1      26.650  12.698  -3.469  1.00  0.00    -0.198 NA
ATOM     27  N   UNL     1      26.125  12.731  -1.166  1.00  0.00    -0.341 N 
ATOM     28  N   UNL     1      27.211  12.673  -5.743  1.00  0.00    -0.327 N 
ATOM     29  C   UNL     1      30.081  13.374  -0.315  1.00  0.00    +0.077 A 
ATOM     30  C   UNL     1      30.987  13.463  -1.336  1.00  0.00    +0.053 A 
ATOM     31  C   UNL     1      28.405  13.045  -1.846  1.00  0.00    +0.148 A 
ATOM     32  C   UNL     1      29.319  13.132  -2.900  1.00  0.00    +0.185 A 
ATOM     33  C   UNL     1      27.089  12.827  -2.204  1.00  0.00    +0.149 A 
ATOM     34  C   UNL     1      27.611  12.800  -4.395  1.00  0.00    +0.216 A 
ATOM     35  H   UNL     1      25.178  12.576  -1.386  1.00  0.00    +0.000 HD
ATOM     36  H   UNL     1      26.404  12.819  -0.225  1.00  0.00    +0.000 HD
ATOM     37  H   UNL     1      27.879  12.740  -6.462  1.00  0.00    +0.000 HD
ATOM     38  H   UNL     1      26.264  12.518  -5.962  1.00  0.00    +0.000 HD
ENDBRANCH  22  29
ENDBRANCH   1  22
TORSDOF 9
BEGIN_RES LEU A 22
REMARK INDEX MAP 3 1 15 2 18 3 20 4 21 5
ROOT
ATOM      1  CA  LEU A  22      35.718   8.629  -0.348  1.00  0.00    +0.172 C 
ENDROOT
BRANCH   1   2
ATOM      2  CB  LEU A  22      35.359   9.654  -1.473  1.00  0.00    +0.038 C 
BRANCH   2   3
ATOM      3  CG  LEU A  22      33.868   9.922  -1.516  1.00  0.00    -0.015 C 
ATOM      4  CD1 LEU A  22      33.305  10.397  -0.199  1.00  0.00    +0.007 C 
ATOM      5  CD2 LEU A  22      33.601  11.013  -2.557  1.00  0.00    +0.007 C 
ENDBRANCH   2   3
ENDBRANCH   1   2
END_RES LEU A 22
ENDMDL
MODEL 4
REMARK VINA RESULT:    -9.669      4.146      9.303
REMARK INTER + INTRA:         -16.297
REMARK INTER:                 -13.606
REMARK INTRA:                  -2.691
REMARK UNBOUND:                -1.542
REMARK  Name = 126941
REMARK  10 active torsions:
REMARK  status: ('A' for Active; 'I' for Inactive)
REMARK    1  A    between atoms: N_6  and  C_16
REMARK    2  A    between atoms: N_6  and  C_18
REMARK    3  A    between atoms: N_6  and  C_27
REMARK    4  A    between atoms: N_7  and  CA_14
REMARK    5  A    between atoms: CA_14  and  CB_15
REMARK    6  A    between atoms: CA_14  and  C_23
REMARK    7  A    between atoms: CB_15  and  CG_17
REMARK    8  A    between atoms: CG_17  and  CD_28
REMARK    9  A    between atoms: C_18  and  C_26
REMARK   10  A    between atoms: C_19  and  C_20
REMARK                            x       y       z     vdW  Elec       q    Type
REMARK                         _______ _______ _______ _____ _____    ______ ____
ROOT
ATOM      1  N   UNL     1      33.630  20.713  -2.045  1.00  0.00    -0.327 N 
ATOM      2  C   UNL     1      34.862  20.346  -2.715  1.00  0.00    +0.001 C 
ENDROOT
BRANCH   1   3
ATOM      3  C   UNL     1      32.890  19.747  -1.332  1.00  0.00    +0.030 A 
ATOM      4  C   UNL     1      31.426  17.837   0.078  1.00  0.00    +0.037 A 
ATOM      5  C   UNL     1      33.515  18.972  -0.355  1.00  0.00    -0.040 A 
ATOM      6  C   UNL     1      31.534  19.567  -1.604  1.00  0.00    -0.040 A 
ATOM      7  C   UNL     1      32.782  18.016   0.351  1.00  0.00    -0.048 A 
ATOM      8  C   UNL     1      30.802  18.612  -0.899  1.00  0.00    -0.048 A 
BRANCH   4  11
ATOM      9  O   UNL     1      29.616  17.160   1.407  1.00  0.00    -0.270 OA
ATOM     10  N   UNL     1      31.146  15.525   0.799  1.00  0.00    -0.298 N 
ATOM     11  C   ACE A   0      30.646  16.820   0.830  1.00  0.00    +0.245 C 
ATOM     12  H   UNL     1      31.981  15.353   0.307  1.00  0.00    +0.000 HD
BRANCH  10  13
ATOM     13  CA  UNL     1      30.490  14.425   1.459  1.00  0.00    +0.121 C 
BRANCH  13  16
ATOM     14  O   UNL     1      31.693  12.579   2.364  1.00  0.00    -0.479 OA
ATOM     15  OXT UNL     1      31.886  14.562   3.449  1.00  0.00    -0.249 OA
ATOM     16  C   UNL     1      31.431  13.902   2.525  1.00  0.00    +0.325 C 
ENDBRANCH  13  16
BRANCH  13  17
ATOM     17  CB  UNL     1      30.006  13.349   0.478  1.00  0.00    -0.014 C 
BRANCH  17  18
ATOM     18  CG  UNL     1      28.809  13.735  -0.399  1.00  0.00    +0.047 C 
BRANCH  18  21
ATOM     19  OE1 UNL     1      29.977  14.987  -2.048  1.00  0.00    -0.481 OA
ATOM     20  OE2 UNL     1      28.795  13.193  -2.775  1.00  0.00    -0.251 OA
ATOM     21  CD  UNL     1      29.159  13.919  -1.861  1.00  0.00    +0.305 C 
ENDBRANCH  18  21
ENDBRANCH  17  18
ENDBRANCH  13  17
ENDBRANCH  10  13
ENDBRANCH   4  11
ENDBRANCH   1   3
BRANCH   1  22
ATOM     22  C   UNL     1      33.162  22.082  -2.129  1.00  0.00    +0.056 C 
BRANCH  22  29
ATOM     23  N   UNL     1      33.832  23.566  -3.945  1.00  0.00    -0.242 NA
ATOM     24  N   UNL     1      32.179  22.262  -5.742  1.00  0.00    -0.232 NA
ATOM     25  N   UNL     1      32.852  23.700  -7.427  1.00  0.00    -0.193 NA
ATOM     26  N   UNL     1      34.442  25.443  -6.999  1.00  0.00    -0.198 NA
ATOM     27  N   UNL     1      35.338  25.700  -4.827  1.00  0.00    -0.341 N 
ATOM     28  N   UNL     1      33.532  25.157  -9.137  1.00  0.00    -0.327 N 
ATOM     29  C   UNL     1      33.079  22.523  -3.565  1.00  0.00    +0.077 A 
ATOM     30  C   UNL     1      32.262  21.878  -4.453  1.00  0.00    +0.053 A 
ATOM     31  C   UNL     1      33.748  23.948  -5.234  1.00  0.00    +0.148 A 
ATOM     32  C   UNL     1      32.917  23.300  -6.151  1.00  0.00    +0.185 A 
ATOM     33  C   UNL     1      34.480  25.011  -5.725  1.00  0.00    +0.149 A 
ATOM     34  C   UNL     1      33.614  24.748  -7.788  1.00  0.00    +0.216 A 
ATOM     35  H   UNL     1      35.875  26.461  -5.146  1.00  0.00    +0.000 HD
ATOM     36  H   UNL     1      35.395  25.416  -3.886  1.00  0.00    +0.000 HD
ATOM     37  H   UNL     1      32.937  24.679  -9.760  1.00  0.00    +0.000 HD
ATOM     38  H   UNL     1      34.068  25.918  -9.455  1.00  0.00    +0.000 HD
ENDBRANCH  22  29
ENDBRANCH   1  22
TORSDOF 9
BEGIN_RES LEU A 22
REMARK INDEX MAP 3 1 15 2 18 3 20 4 21 5
ROOT
ATOM      1  CA  LEU A  22      35.718   8.629  -0.348  1.00  0.00    +0.172 C 
ENDROOT
BRANCH   1   2
ATOM      2  CB  LEU A  22      35.359   9.654  -1.473  1.00  0.00    +0.038 C 
BRANCH   2   3
ATOM      3  CG  LEU A  22      33.865   9.902  -1.534  1.00  0.00    -0.015 C 
ATOM      4  CD1 LEU A  22      33.260  10.248  -0.195  1.00  0.00    +0.007 C 
ATOM      5  CD2 LEU A  22      33.607  11.079  -2.478  1.00  0.00    +0.007 C 
ENDBRANCH   2   3
ENDBRANCH   1   2
END_RES LEU A 22
ENDMDL
MODEL 5
REMARK VINA RESULT:    -9.141      4.071      5.519
REMARK INTER + INTRA:         -15.493
REMARK INTER:                 -12.840
REMARK INTRA:                  -2.652
REMARK UNBOUND:                -1.542
REMARK  Name = 126941
REMARK  10 active torsions:
REMARK  status: ('A' for Active; 'I' for Inactive)
REMARK    1  A    between atoms: N_6  and  C_16
REMARK    2  A    between atoms: N_6  and  C_18
REMARK    3  A    between atoms: N_6  and  C_27
REMARK    4  A    between atoms: N_7  and  CA_14
REMARK    5  A    between atoms: CA_14  and  CB_15
REMARK    6  A    between atoms: CA_14  and  C_23
REMARK    7  A    between atoms: CB_15  and  CG_17
REMARK    8  A    between atoms: CG_17  and  CD_28
REMARK    9  A    between atoms: C_18  and  C_26
REMARK   10  A    between atoms: C_19  and  C_20
REMARK                            x       y       z     vdW  Elec       q    Type
REMARK                         _______ _______ _______ _____ _____    ______ ____
ROOT
ATOM      1  N   UNL     1      31.068  13.989   1.342  1.00  0.00    -0.327 N 
ATOM      2  C   UNL     1      30.776  12.707   1.952  1.00  0.00    +0.001 C 
ENDROOT
BRANCH   1   3
ATOM      3  C   UNL     1      32.401  14.434   1.221  1.00  0.00    +0.030 A 
ATOM      4  C   UNL     1      35.037  15.315   0.982  1.00  0.00    +0.037 A 
ATOM      5  C   UNL     1      32.695  15.794   1.331  1.00  0.00    -0.040 A 
ATOM      6  C   UNL     1      33.426  13.516   0.991  1.00  0.00    -0.040 A 
ATOM      7  C   UNL     1      34.014  16.234   1.212  1.00  0.00    -0.048 A 
ATOM      8  C   UNL     1      34.743  13.956   0.871  1.00  0.00    -0.048 A 
BRANCH   4  11
ATOM      9  O   UNL     1      37.244  15.524   1.748  1.00  0.00    -0.270 OA
ATOM     10  N   UNL     1      36.748  16.480  -0.306  1.00  0.00    -0.298 N 
ATOM     11  C   ACE A   0      36.442  15.784   0.856  1.00  0.00    +0.245 C 
ATOM     12  H   UNL     1      36.034  16.638  -0.964  1.00  0.00    +0.000 HD
BRANCH  10  13
ATOM     13  CA  UNL     1      38.071  16.977  -0.585  1.00  0.00    +0.121 C 
BRANCH  13  16
ATOM     14  O   UNL     1      38.814  18.511  -2.251  1.00  0.00    -0.479 OA
ATOM     15  OXT UNL     1      37.125  19.199  -0.900  1.00  0.00    -0.249 OA
ATOM     16  C   UNL     1      37.922  18.334  -1.241  1.00  0.00    +0.325 C 
ENDBRANCH  13  16
BRANCH  13  17
ATOM     17  CB  UNL     1      38.918  15.988  -1.396  1.00  0.00    -0.014 C 
BRANCH  17  18
ATOM     18  CG  UNL     1      39.454  14.777  -0.622  1.00  0.00    +0.047 C 
BRANCH  18  21
ATOM     19  OE1 UNL     1      37.576  13.611  -1.496  1.00  0.00    -0.481 OA
ATOM     20  OE2 UNL     1      39.435  12.382  -1.071  1.00  0.00    -0.251 OA
ATOM     21  CD  UNL     1      38.854  13.458  -1.062  1.00  0.00    +0.305 C 
ENDBRANCH  18  21
ENDBRANCH  17  18
ENDBRANCH  13  17
ENDBRANCH  10  13
ENDBRANCH   4  11
ENDBRANCH   1   3
BRANCH   1  22
ATOM     22  C   UNL     1      29.973  14.814   0.872  1.00  0.00    +0.056 C 
BRANCH  22  29
ATOM     23  N   UNL     1      28.519  13.724  -0.753  1.00  0.00    -0.242 NA
ATOM     24  N   UNL     1      30.090  14.576  -2.867  1.00  0.00    -0.232 NA
ATOM     25  N   UNL     1      28.673  13.521  -4.364  1.00  0.00    -0.193 NA
ATOM     26  N   UNL     1      26.744  12.321  -3.600  1.00  0.00    -0.198 NA
ATOM     27  N   UNL     1      26.277  12.210  -1.286  1.00  0.00    -0.341 N 
ATOM     28  N   UNL     1      27.239  12.453  -5.884  1.00  0.00    -0.327 N 
ATOM     29  C   UNL     1      29.620  14.462  -0.546  1.00  0.00    +0.077 A 
ATOM     30  C   UNL     1      30.396  14.884  -1.591  1.00  0.00    +0.053 A 
ATOM     31  C   UNL     1      28.214  13.417  -2.029  1.00  0.00    +0.148 A 
ATOM     32  C   UNL     1      28.998  13.839  -3.105  1.00  0.00    +0.185 A 
ATOM     33  C   UNL     1      27.103  12.661  -2.348  1.00  0.00    +0.149 A 
ATOM     34  C   UNL     1      27.566  12.780  -4.550  1.00  0.00    +0.216 A 
ATOM     35  H   UNL     1      25.477  11.670  -1.480  1.00  0.00    +0.000 HD
ATOM     36  H   UNL     1      26.505  12.437  -0.355  1.00  0.00    +0.000 HD
ATOM     37  H   UNL     1      27.811  12.767  -6.621  1.00  0.00    +0.000 HD
ATOM     38  H   UNL     1      26.440  11.913  -6.077  1.00  0.00    +0.000 HD
ENDBRANCH  22  29
ENDBRANCH   1  22
TORSDOF 9
BEGIN_RES LEU A 22
REMARK INDEX MAP 3 1 15 2 18 3 20 4 21 5
ROOT
ATOM      1  CA  LEU A  22      35.718   8.629  -0.348  1.00  0.00    +0.172 C 
ENDROOT
BRANCH   1   2
ATOM      2  CB  LEU A  22      35.359   9.654  -1.473  1.00  0.00    +0.038 C 
BRANCH   2   3
ATOM      3  CG  LEU A  22      33.860   9.850  -1.579  1.00  0.00    -0.015 C 
ATOM      4  CD1 LEU A  22      33.193  10.107  -0.251  1.00  0.00    +0.007 C 
ATOM      5  CD2 LEU A  22      33.592  11.061  -2.477  1.00  0.00    +0.007 C 
ENDBRANCH   2   3
ENDBRANCH   1   2
END_RES LEU A 22
ENDMDL
MODEL 6
REMARK VINA RESULT:    -8.963      3.964      9.038
REMARK INTER + INTRA:         -15.221
REMARK INTER:                 -12.808
REMARK INTRA:                  -2.412
REMARK UNBOUND:                -1.542
REMARK  Name = 126941
REMARK  10 active torsions:
REMARK  status: ('A' for Active; 'I' for Inactive)
REMARK    1  A    between atoms: N_6  and  C_16
REMARK    2  A    between atoms: N_6  and  C_18
REMARK    3  A    between atoms: N_6  and  C_27
REMARK    4  A    between atoms: N_7  and  CA_14
REMARK    5  A    between atoms: CA_14  and  CB_15
REMARK    6  A    between atoms: CA_14  and  C_23
REMARK    7  A    between atoms: CB_15  and  CG_17
REMARK    8  A    between atoms: CG_17  and  CD_28
REMARK    9  A    between atoms: C_18  and  C_26
REMARK   10  A    between atoms: C_19  and  C_20
REMARK                            x       y       z     vdW  Elec       q    Type
REMARK                         _______ _______ _______ _____ _____    ______ ____
ROOT
ATOM      1  N   UNL     1      31.971  21.243  -2.001  1.00  0.00    -0.327 N 
ATOM      2  C   UNL     1      32.194  22.529  -1.371  1.00  0.00    +0.001 C 
ENDROOT
BRANCH   1   3
ATOM      3  C   UNL     1      32.028  20.056  -1.240  1.00  0.00    +0.030 A 
ATOM      4  C   UNL     1      32.139  17.709   0.262  1.00  0.00    +0.037 A 
ATOM      5  C   UNL     1      30.871  19.303  -1.037  1.00  0.00    -0.040 A 
ATOM      6  C   UNL     1      33.239  19.635  -0.692  1.00  0.00    -0.040 A 
ATOM      7  C   UNL     1      30.926  18.129  -0.285  1.00  0.00    -0.048 A 
ATOM      8  C   UNL     1      33.295  18.463   0.059  1.00  0.00    -0.048 A 
BRANCH   4  11
ATOM      9  O   UNL     1      33.138  16.283   1.833  1.00  0.00    -0.270 OA
ATOM     10  N   UNL     1      31.142  15.573   0.887  1.00  0.00    -0.298 N 
ATOM     11  C   ACE A   0      32.198  16.458   1.063  1.00  0.00    +0.245 C 
ATOM     12  H   UNL     1      30.434  15.804   0.245  1.00  0.00    +0.000 HD
BRANCH  10  13
ATOM     13  CA  UNL     1      31.045  14.331   1.610  1.00  0.00    +0.121 C 
BRANCH  13  16
ATOM     14  O   UNL     1      32.849  12.919   2.268  1.00  0.00    -0.479 OA
ATOM     15  OXT UNL     1      32.596  13.293   0.044  1.00  0.00    -0.249 OA
ATOM     16  C   UNL     1      32.218  13.466   1.196  1.00  0.00    +0.325 C 
ENDBRANCH  13  16
BRANCH  13  17
ATOM     17  CB  UNL     1      29.683  13.648   1.436  1.00  0.00    -0.014 C 
BRANCH  17  18
ATOM     18  CG  UNL     1      28.710  14.336   0.469  1.00  0.00    +0.047 C 
BRANCH  18  21
ATOM     19  OE1 UNL     1      28.267  13.059  -1.485  1.00  0.00    -0.481 OA
ATOM     20  OE2 UNL     1      29.805  14.715  -1.674  1.00  0.00    -0.251 OA
ATOM     21  CD  UNL     1      29.016  14.078  -0.991  1.00  0.00    +0.305 C 
ENDBRANCH  18  21
ENDBRANCH  17  18
ENDBRANCH  13  17
ENDBRANCH  10  13
ENDBRANCH   4  11
ENDBRANCH   1   3
BRANCH   1  22
ATOM     22  C   UNL     1      31.705  21.190  -3.425  1.00  0.00    +0.056 C 
BRANCH  22  29
ATOM     23  N   UNL     1      34.081  20.974  -3.929  1.00  0.00    -0.242 NA
ATOM     24  N   UNL     1      33.942  22.945  -5.867  1.00  0.00    -0.232 NA
ATOM     25  N   UNL     1      36.203  22.695  -6.304  1.00  0.00    -0.193 NA
ATOM     26  N   UNL     1      37.522  21.097  -5.098  1.00  0.00    -0.198 NA
ATOM     27  N   UNL     1      36.505  19.755  -3.440  1.00  0.00    -0.341 N 
ATOM     28  N   UNL     1      38.494  22.445  -6.747  1.00  0.00    -0.327 N 
ATOM     29  C   UNL     1      32.925  21.598  -4.204  1.00  0.00    +0.077 A 
ATOM     30  C   UNL     1      32.857  22.571  -5.163  1.00  0.00    +0.053 A 
ATOM     31  C   UNL     1      35.165  21.348  -4.635  1.00  0.00    +0.148 A 
ATOM     32  C   UNL     1      35.110  22.342  -5.616  1.00  0.00    +0.185 A 
ATOM     33  C   UNL     1      36.402  20.769  -4.428  1.00  0.00    +0.149 A 
ATOM     34  C   UNL     1      37.352  22.058  -6.012  1.00  0.00    +0.216 A 
ATOM     35  H   UNL     1      37.372  19.322  -3.268  1.00  0.00    +0.000 HD
ATOM     36  H   UNL     1      35.709  19.485  -2.927  1.00  0.00    +0.000 HD
ATOM     37  H   UNL     1      38.422  23.148  -7.433  1.00  0.00    +0.000 HD
ATOM     38  H   UNL     1      39.360  22.012  -6.575  1.00  0.00    +0.000 HD
ENDBRANCH  22  29
ENDBRANCH   1  22
TORSDOF 9
BEGIN_RES LEU A 22
REMARK INDEX MAP 3 1 15 2 18 3 20 4 21 5
ROOT
ATOM      1  CA  LEU A  22      35.718   8.629  -0.348  1.00  0.00    +0.172 C 
ENDROOT
BRANCH   1   2
ATOM      2  CB  LEU A  22      35.359   9.654  -1.473  1.00  0.00    +0.038 C 
BRANCH   2   3
ATOM      3  CG  LEU A  22      33.858   9.816  -1.609  1.00  0.00    -0.015 C 
ATOM      4  CD1 LEU A  22      33.154  10.018  -0.290  1.00  0.00    +0.007 C 
ATOM      5  CD2 LEU A  22      33.581  11.047  -2.477  1.00  0.00    +0.007 C 
ENDBRANCH   2   3
ENDBRANCH   1   2
END_RES LEU A 22
ENDMDL
MODEL 7
REMARK VINA RESULT:    -8.807      3.896      8.546
REMARK INTER + INTRA:         -14.982
REMARK INTER:                 -12.424
REMARK INTRA:                  -2.557
REMARK UNBOUND:                -1.542
REMARK  Name = 126941
REMARK  10 active torsions:
REMARK  status: ('A' for Active; 'I' for Inactive)
REMARK    1  A    between atoms: N_6  and  C_16
REMARK    2  A    between atoms: N_6  and  C_18
REMARK    3  A    between atoms: N_6  and  C_27
REMARK    4  A    between atoms: N_7  and  CA_14
REMARK    5  A    between atoms: CA_14  and  CB_15
REMARK    6  A    between atoms: CA_14  and  C_23
REMARK    7  A    between atoms: CB_15  and  CG_17
REMARK    8  A    between atoms: CG_17  and  CD_28
REMARK    9  A    between atoms: C_18  and  C_26
REMARK   10  A    between atoms: C_19  and  C_20
REMARK                            x       y       z     vdW  Elec       q    Type
REMARK                         _______ _______ _______ _____ _____    ______ ____
ROOT
ATOM      1  N   UNL     1      32.248  21.697  -2.087  1.00  0.00    -0.327 N 
ATOM      2  C   UNL     1      32.397  22.931  -1.341  1.00  0.00    +0.001 C 
ENDROOT
BRANCH   1   3
ATOM      3  C   UNL     1      31.930  20.495  -1.421  1.00  0.00    +0.030 A 
ATOM      4  C   UNL     1      31.301  18.119  -0.102  1.00  0.00    +0.037 A 
ATOM      5  C   UNL     1      32.427  20.257  -0.139  1.00  0.00    -0.040 A 
ATOM      6  C   UNL     1      31.120  19.546  -2.042  1.00  0.00    -0.040 A 
ATOM      7  C   UNL     1      32.112  19.068   0.521  1.00  0.00    -0.048 A 
ATOM      8  C   UNL     1      30.805  18.358  -1.383  1.00  0.00    -0.048 A 
BRANCH   4  11
ATOM      9  O   UNL     1      29.916  16.780   1.235  1.00  0.00    -0.270 OA
ATOM     10  N   UNL     1      31.881  15.819   0.462  1.00  0.00    -0.298 N 
ATOM     11  C   ACE A   0      30.965  16.853   0.601  1.00  0.00    +0.245 C 
ATOM     12  H   UNL     1      32.695  15.977  -0.069  1.00  0.00    +0.000 HD
BRANCH  10  13
ATOM     13  CA  UNL     1      31.685  14.525   1.062  1.00  0.00    +0.121 C 
BRANCH  13  16
ATOM     14  O   UNL     1      33.948  15.061   1.580  1.00  0.00    -0.479 OA
ATOM     15  OXT UNL     1      33.079  13.212   2.568  1.00  0.00    -0.249 OA
ATOM     16  C   UNL     1      32.944  14.180   1.831  1.00  0.00    +0.325 C 
ENDBRANCH  13  16
BRANCH  13  17
ATOM     17  CB  UNL     1      31.270  13.455   0.045  1.00  0.00    -0.014 C 
BRANCH  17  18
ATOM     18  CG  UNL     1      29.766  13.350  -0.238  1.00  0.00    +0.047 C 
BRANCH  18  21
ATOM     19  OE1 UNL     1      28.344  13.254  -2.140  1.00  0.00    -0.481 OA
ATOM     20  OE2 UNL     1      29.814  14.979  -2.049  1.00  0.00    -0.251 OA
ATOM     21  CD  UNL     1      29.349  13.960  -1.560  1.00  0.00    +0.305 C 
ENDBRANCH  18  21
ENDBRANCH  17  18
ENDBRANCH  13  17
ENDBRANCH  10  13
ENDBRANCH   4  11
ENDBRANCH   1   3
BRANCH   1  22
ATOM     22  C   UNL     1      32.445  21.711  -3.522  1.00  0.00    +0.056 C 
BRANCH  22  29
ATOM     23  N   UNL     1      34.463  20.452  -2.983  1.00  0.00    -0.242 NA
ATOM     24  N   UNL     1      35.664  21.179  -5.369  1.00  0.00    -0.232 NA
ATOM     25  N   UNL     1      37.554  19.966  -4.804  1.00  0.00    -0.193 NA
ATOM     26  N   UNL     1      37.679  18.774  -2.727  1.00  0.00    -0.198 NA
ATOM     27  N   UNL     1      35.849  18.834  -1.234  1.00  0.00    -0.341 N 
ATOM     28  N   UNL     1      39.471  18.738  -4.234  1.00  0.00    -0.327 N 
ATOM     29  C   UNL     1      33.830  21.238  -3.868  1.00  0.00    +0.077 A 
ATOM     30  C   UNL     1      34.424  21.596  -5.047  1.00  0.00    +0.053 A 
ATOM     31  C   UNL     1      35.702  20.035  -3.307  1.00  0.00    +0.148 A 
ATOM     32  C   UNL     1      36.321  20.394  -4.506  1.00  0.00    +0.185 A 
ATOM     33  C   UNL     1      36.438  19.224  -2.465  1.00  0.00    +0.149 A 
ATOM     34  C   UNL     1      38.171  19.179  -3.903  1.00  0.00    +0.216 A 
ATOM     35  H   UNL     1      36.346  18.255  -0.611  1.00  0.00    +0.000 HD
ATOM     36  H   UNL     1      34.942  19.142  -1.002  1.00  0.00    +0.000 HD
ATOM     37  H   UNL     1      39.880  19.008  -5.088  1.00  0.00    +0.000 HD
ATOM     38  H   UNL     1      39.968  18.161  -3.611  1.00  0.00    +0.000 HD
ENDBRANCH  22  29
ENDBRANCH   1  22
TORSDOF 9
BEGIN_RES LEU A 22
REMARK INDEX MAP 3 1 15 2 18 3 20 4 21 5
ROOT
ATOM      1  CA  LEU A  22      35.718   8.629  -0.348  1.00  0.00    +0.172 C 
ENDROOT
BRANCH   1   2
ATOM      2  CB  LEU A  22      35.359   9.654  -1.473  1.00  0.00    +0.038 C 
BRANCH   2   3
ATOM      3  CG  LEU A  22      33.861   9.868  -1.564  1.00  0.00    -0.015 C 
ATOM      4  CD1 LEU A  22      33.222  10.202  -0.238  1.00  0.00    +0.007 C 
ATOM      5  CD2 LEU A  22      33.595  11.037  -2.516  1.00  0.00    +0.007 C 
ENDBRANCH   2   3
ENDBRANCH   1   2
END_RES LEU A 22
ENDMDL
MODEL 8
REMARK VINA RESULT:    -8.802      4.024      9.342
REMARK INTER + INTRA:         -14.974
REMARK INTER:                 -12.605
REMARK INTRA:                  -2.369
REMARK UNBOUND:                -1.542
REMARK  Name = 126941
REMARK  10 active torsions:
REMARK  status: ('A' for Active; 'I' for Inactive)
REMARK    1  A    between atoms: N_6  and  C_16
REMARK    2  A    between atoms: N_6  and  C_18
REMARK    3  A    between atoms: N_6  and  C_27
REMARK    4  A    between atoms: N_7  and  CA_14
REMARK    5  A    between atoms: CA_14  and  CB_15
REMARK    6  A    between atoms: CA_14  and  C_23
REMARK    7  A    between atoms: CB_15  and  CG_17
REMARK    8  A    between atoms: CG_17  and  CD_28
REMARK    9  A    between atoms: C_18  and  C_26
REMARK   10  A    between atoms: C_19  and  C_20
REMARK                            x       y       z     vdW  Elec       q    Type
REMARK                         _______ _______ _______ _____ _____    ______ ____
ROOT
ATOM      1  N   UNL     1      31.800  21.246  -1.630  1.00  0.00    -0.327 N 
ATOM      2  C   UNL     1      31.910  22.502  -0.915  1.00  0.00    +0.001 C 
ENDROOT
BRANCH   1   3
ATOM      3  C   UNL     1      31.925  20.020  -0.943  1.00  0.00    +0.030 A 
ATOM      4  C   UNL     1      32.171  17.596   0.414  1.00  0.00    +0.037 A 
ATOM      5  C   UNL     1      30.802  19.216  -0.744  1.00  0.00    -0.040 A 
ATOM      6  C   UNL     1      33.169  19.613  -0.463  1.00  0.00    -0.040 A 
ATOM      7  C   UNL     1      30.925  18.002  -0.065  1.00  0.00    -0.048 A 
ATOM      8  C   UNL     1      33.292  18.401   0.216  1.00  0.00    -0.048 A 
BRANCH   4  11
ATOM      9  O   UNL     1      33.253  16.135   1.895  1.00  0.00    -0.270 OA
ATOM     10  N   UNL     1      31.297  15.374   0.907  1.00  0.00    -0.298 N 
ATOM     11  C   ACE A   0      32.302  16.304   1.137  1.00  0.00    +0.245 C 
ATOM     12  H   UNL     1      30.574  15.604   0.280  1.00  0.00    +0.000 HD
BRANCH  10  13
ATOM     13  CA  UNL     1      31.271  14.086   1.553  1.00  0.00    +0.121 C 
BRANCH  13  16
ATOM     14  O   UNL     1      32.666  13.326  -0.222  1.00  0.00    -0.479 OA
ATOM     15  OXT UNL     1      33.291  12.767   1.887  1.00  0.00    -0.249 OA
ATOM     16  C   UNL     1      32.516  13.335   1.128  1.00  0.00    +0.325 C 
ENDBRANCH  13  16
BRANCH  13  17
ATOM     17  CB  UNL     1      29.968  13.320   1.296  1.00  0.00    -0.014 C 
BRANCH  17  18
ATOM     18  CG  UNL     1      28.864  14.102   0.572  1.00  0.00    +0.047 C 
BRANCH  18  21
ATOM     19  OE1 UNL     1      29.639  14.916  -1.522  1.00  0.00    -0.481 OA
ATOM     20  OE2 UNL     1      28.354  13.048  -1.564  1.00  0.00    -0.251 OA
ATOM     21  CD  UNL     1      28.893  13.945  -0.934  1.00  0.00    +0.305 C 
ENDBRANCH  18  21
ENDBRANCH  17  18
ENDBRANCH  13  17
ENDBRANCH  10  13
ENDBRANCH   4  11
ENDBRANCH   1   3
BRANCH   1  22
ATOM     22  C   UNL     1      31.575  21.266  -3.062  1.00  0.00    +0.056 C 
BRANCH  22  29
ATOM     23  N   UNL     1      32.744  22.974  -4.351  1.00  0.00    -0.242 NA
ATOM     24  N   UNL     1      35.039  21.433  -4.486  1.00  0.00    -0.232 NA
ATOM     25  N   UNL     1      36.098  23.091  -5.708  1.00  0.00    -0.193 NA
ATOM     26  N   UNL     1      34.962  25.128  -6.266  1.00  0.00    -0.198 NA
ATOM     27  N   UNL     1      32.730  25.452  -5.560  1.00  0.00    -0.341 N 
ATOM     28  N   UNL     1      37.173  24.769  -6.947  1.00  0.00    -0.327 N 
ATOM     29  C   UNL     1      32.800  21.762  -3.780  1.00  0.00    +0.077 A 
ATOM     30  C   UNL     1      33.935  21.000  -3.846  1.00  0.00    +0.053 A 
ATOM     31  C   UNL     1      33.848  23.406  -4.990  1.00  0.00    +0.148 A 
ATOM     32  C   UNL     1      35.013  22.639  -5.067  1.00  0.00    +0.185 A 
ATOM     33  C   UNL     1      33.892  24.638  -5.612  1.00  0.00    +0.149 A 
ATOM     34  C   UNL     1      36.020  24.309  -6.274  1.00  0.00    +0.216 A 
ATOM     35  H   UNL     1      32.729  26.337  -5.992  1.00  0.00    +0.000 HD
ATOM     36  H   UNL     1      31.925  25.132  -5.091  1.00  0.00    +0.000 HD
ATOM     37  H   UNL     1      37.979  24.205  -6.983  1.00  0.00    +0.000 HD
ATOM     38  H   UNL     1      37.171  25.653  -7.379  1.00  0.00    +0.000 HD
ENDBRANCH  22  29
ENDBRANCH   1  22
TORSDOF 9
BEGIN_RES LEU A 22
REMARK INDEX MAP 3 1 15 2 18 3 20 4 21 5
ROOT
ATOM      1  CA  LEU A  22      35.718   8.629  -0.348  1.00  0.00    +0.172 C 
ENDROOT
BRANCH   1   2
ATOM      2  CB  LEU A  22      35.359   9.654  -1.473  1.00  0.00    +0.038 C 
BRANCH   2   3
ATOM      3  CG  LEU A  22      33.858   9.778  -1.644  1.00  0.00    -0.015 C 
ATOM      4  CD1 LEU A  22      33.119   9.963  -0.342  1.00  0.00    +0.007 C 
ATOM      5  CD2 LEU A  22      33.569  11.000  -2.521  1.00  0.00    +0.007 C 
ENDBRANCH   2   3
ENDBRANCH   1   2
END_RES LEU A 22
ENDMDL
MODEL 9
REMARK VINA RESULT:    -8.629      4.295      9.017
REMARK INTER + INTRA:         -14.711
REMARK INTER:                 -12.358
REMARK INTRA:                  -2.353
REMARK UNBOUND:                -1.542
REMARK  Name = 126941
REMARK  10 active torsions:
REMARK  status: ('A' for Active; 'I' for Inactive)
REMARK    1  A    between atoms: N_6  and  C_16
REMARK    2  A    between atoms: N_6  and  C_18
REMARK    3  A    between atoms: N_6  and  C_27
REMARK    4  A    between atoms: N_7  and  CA_14
REMARK    5  A    between atoms: CA_14  and  CB_15
REMARK    6  A    between atoms: CA_14  and  C_23
REMARK    7  A    between atoms: CB_15  and  CG_17
REMARK    8  A    between atoms: CG_17  and  CD_28
REMARK    9  A    between atoms: C_18  and  C_26
REMARK   10  A    between atoms: C_19  and  C_20
REMARK                            x       y       z     vdW  Elec       q    Type
REMARK                         _______ _______ _______ _____ _____    ______ ____
ROOT
ATOM      1  N   UNL     1      36.475  20.226  -2.947  1.00  0.00    -0.327 N 
ATOM      2  C   UNL     1      37.410  21.199  -2.420  1.00  0.00    +0.001 C 
ENDROOT
BRANCH   1   3
ATOM      3  C   UNL     1      35.464  19.689  -2.124  1.00  0.00    +0.030 A 
ATOM      4  C   UNL     1      33.461  18.628  -0.497  1.00  0.00    +0.037 A 
ATOM      5  C   UNL     1      34.148  20.134  -2.257  1.00  0.00    -0.040 A 
ATOM      6  C   UNL     1      35.777  18.714  -1.177  1.00  0.00    -0.040 A 
ATOM      7  C   UNL     1      33.146  19.603  -1.444  1.00  0.00    -0.048 A 
ATOM      8  C   UNL     1      34.777  18.184  -0.364  1.00  0.00    -0.048 A 
BRANCH   4  11
ATOM      9  O   UNL     1      31.524  18.807   0.812  1.00  0.00    -0.270 OA
ATOM     10  N   UNL     1      32.457  16.694   0.597  1.00  0.00    -0.298 N 
ATOM     11  C   ACE A   0      32.394  18.062   0.370  1.00  0.00    +0.245 C 
ATOM     12  H   UNL     1      33.196  16.182   0.196  1.00  0.00    +0.000 HD
BRANCH  10  13
ATOM     13  CA  UNL     1      31.481  15.996   1.394  1.00  0.00    +0.121 C 
BRANCH  13  16
ATOM     14  O   UNL     1      31.719  14.412   3.158  1.00  0.00    -0.479 OA
ATOM     15  OXT UNL     1      32.951  14.057   1.286  1.00  0.00    -0.249 OA
ATOM     16  C   UNL     1      32.129  14.724   1.901  1.00  0.00    +0.325 C 
ENDBRANCH  13  16
BRANCH  13  17
ATOM     17  CB  UNL     1      30.162  15.764   0.648  1.00  0.00    -0.014 C 
BRANCH  17  18
ATOM     18  CG  UNL     1      30.290  15.352  -0.824  1.00  0.00    +0.047 C 
BRANCH  18  21
ATOM     19  OE1 UNL     1      29.224  13.803  -2.278  1.00  0.00    -0.481 OA
ATOM     20  OE2 UNL     1      30.129  12.963  -0.376  1.00  0.00    -0.251 OA
ATOM     21  CD  UNL     1      29.881  13.920  -1.095  1.00  0.00    +0.305 C 
ENDBRANCH  18  21
ENDBRANCH  17  18
ENDBRANCH  13  17
ENDBRANCH  10  13
ENDBRANCH   4  11
ENDBRANCH   1   3
BRANCH   1  22
ATOM     22  C   UNL     1      36.603  19.799  -4.326  1.00  0.00    +0.056 C 
BRANCH  22  29
ATOM     23  N   UNL     1      34.789  21.094  -5.317  1.00  0.00    -0.242 NA
ATOM     24  N   UNL     1      36.557  22.566  -6.855  1.00  0.00    -0.232 NA
ATOM     25  N   UNL     1      34.795  23.763  -7.761  1.00  0.00    -0.193 NA
ATOM     26  N   UNL     1      32.532  23.313  -7.106  1.00  0.00    -0.198 NA
ATOM     27  N   UNL     1      32.091  21.625  -5.513  1.00  0.00    -0.341 N 
ATOM     28  N   UNL     1      33.010  24.978  -8.682  1.00  0.00    -0.327 N 
ATOM     29  C   UNL     1      36.111  20.873  -5.257  1.00  0.00    +0.077 A 
ATOM     30  C   UNL     1      36.985  21.601  -6.017  1.00  0.00    +0.053 A 
ATOM     31  C   UNL     1      34.363  22.058  -6.154  1.00  0.00    +0.148 A 
ATOM     32  C   UNL     1      35.244  22.809  -6.937  1.00  0.00    +0.185 A 
ATOM     33  C   UNL     1      33.023  22.363  -6.289  1.00  0.00    +0.149 A 
ATOM     34  C   UNL     1      33.466  23.968  -7.806  1.00  0.00    +0.216 A 
ATOM     35  H   UNL     1      31.128  21.818  -5.585  1.00  0.00    +0.000 HD
ATOM     36  H   UNL     1      32.408  20.920  -4.902  1.00  0.00    +0.000 HD
ATOM     37  H   UNL     1      33.656  25.490  -9.220  1.00  0.00    +0.000 HD
ATOM     38  H   UNL     1      32.048  25.170  -8.754  1.00  0.00    +0.000 HD
ENDBRANCH  22  29
ENDBRANCH   1  22
TORSDOF 9
BEGIN_RES LEU A 22
REMARK INDEX MAP 3 1 15 2 18 3 20 4 21 5
ROOT
ATOM      1  CA  LEU A  22      35.718   8.629  -0.348  1.00  0.00    +0.172 C 
ENDROOT
BRANCH   1   2
ATOM      2  CB  LEU A  22      35.359   9.654  -1.473  1.00  0.00    +0.038 C 
BRANCH   2   3
ATOM      3  CG  LEU A  22      33.861   9.871  -1.561  1.00  0.00    -0.015 C 
ATOM      4  CD1 LEU A  22      33.233  10.254  -0.244  1.00  0.00    +0.007 C 
ATOM      5  CD2 LEU A  22      33.593  11.007  -2.552  1.00  0.00    +0.007 C 
ENDBRANCH   2   3
ENDBRANCH   1   2
END_RES LEU A 22
ENDMDL
