MODEL 1
REMARK VINA RESULT:   -10.164      0.000      0.000
REMARK INTER + INTRA:         -20.840
REMARK INTER:                 -15.511
REMARK INTRA:                  -5.329
REMARK UNBOUND:                -5.329
REMARK  Name = 126941
REMARK  10 active torsions:
REMARK  status: ('A' for Active; 'I' for Inactive)
REMARK    1  A    between atoms: N_6  and  C_16
REMARK    2  A    between atoms: N_6  and  C_18
REMARK    3  A    between atoms: N_6  and  C_27
REMARK    4  A    between atoms: N_7  and  CA_14
REMARK    5  A    between atoms: CA_14  and  CB_15
REMARK    6  A    between atoms: CA_14  and  C_23
REMARK    7  A    between atoms: CB_15  and  CG_17
REMARK    8  A    between atoms: CG_17  and  CD_28
REMARK    9  A    between atoms: C_18  and  C_26
REMARK   10  A    between atoms: C_19  and  C_20
REMARK                            x       y       z     vdW  Elec       q    Type
REMARK                         _______ _______ _______ _____ _____    ______ ____
ROOT
ATOM      1  N   UNL     1      14.771  -5.095 -14.787  1.00  0.00    -0.327 N 
ATOM      2  C   UNL     1      14.204  -5.126 -13.453  1.00  0.00    +0.001 C 
ENDROOT
BRANCH   1   3
ATOM      3  C   UNL     1      13.991  -4.675 -15.884  1.00  0.00    +0.030 A 
ATOM      4  C   UNL     1      12.446  -3.844 -18.053  1.00  0.00    +0.037 A 
ATOM      5  C   UNL     1      13.489  -5.616 -16.783  1.00  0.00    -0.040 A 
ATOM      6  C   UNL     1      13.721  -3.319 -16.070  1.00  0.00    -0.040 A 
ATOM      7  C   UNL     1      12.716  -5.200 -17.869  1.00  0.00    -0.048 A 
ATOM      8  C   UNL     1      12.949  -2.904 -17.154  1.00  0.00    -0.048 A 
BRANCH   4  11
ATOM      9  O   UNL     1      10.952  -2.379 -19.110  1.00  0.00    -0.270 OA
ATOM     10  N   UNL     1      11.701  -4.191 -20.349  1.00  0.00    -0.298 N 
ATOM     11  C   ACE A   0      11.624  -3.402 -19.209  1.00  0.00    +0.245 C 
ATOM     12  H   UNL     1      12.270  -4.994 -20.329  1.00  0.00    +0.000 HD
BRANCH  10  13
ATOM     13  CA  UNL     1      10.982  -3.879 -21.557  1.00  0.00    +0.121 C 
BRANCH  13  16
ATOM     14  O   UNL     1       8.683  -3.503 -22.058  1.00  0.00    -0.479 OA
ATOM     15  OXT UNL     1       9.158  -5.188 -20.612  1.00  0.00    -0.249 OA
ATOM     16  C   UNL     1       9.538  -4.287 -21.350  1.00  0.00    +0.325 C 
ENDBRANCH  13  16
BRANCH  13  17
ATOM     17  CB  UNL     1      11.625  -4.495 -22.806  1.00  0.00    -0.014 C 
BRANCH  17  18
ATOM     18  CG  UNL     1      13.155  -4.602 -22.785  1.00  0.00    +0.047 C 
BRANCH  18  21
ATOM     19  OE1 UNL     1      14.738  -4.289 -24.531  1.00  0.00    -0.481 OA
ATOM     20  OE2 UNL     1      13.425  -6.134 -24.660  1.00  0.00    -0.251 OA
ATOM     21  CD  UNL     1      13.749  -5.106 -24.084  1.00  0.00    +0.305 C 
ENDBRANCH  18  21
ENDBRANCH  17  18
ENDBRANCH  13  17
ENDBRANCH  10  13
ENDBRANCH   4  11
ENDBRANCH   1   3
BRANCH   1  22
ATOM     22  C   UNL     1      16.143  -5.518 -14.981  1.00  0.00    +0.056 C 
BRANCH  22  29
ATOM     23  N   UNL     1      17.243  -3.395 -15.463  1.00  0.00    -0.242 NA
ATOM     24  N   UNL     1      18.629  -3.464 -13.069  1.00  0.00    -0.232 NA
ATOM     25  N   UNL     1      19.643  -1.446 -13.580  1.00  0.00    -0.193 NA
ATOM     26  N   UNL     1      19.159  -0.309 -15.636  1.00  0.00    -0.198 NA
ATOM     27  N   UNL     1      17.625  -1.258 -17.163  1.00  0.00    -0.341 N 
ATOM     28  N   UNL     1      20.672   0.599 -14.097  1.00  0.00    -0.327 N 
ATOM     29  C   UNL     1      17.092  -4.413 -14.603  1.00  0.00    +0.077 A 
ATOM     30  C   UNL     1      17.777  -4.447 -13.419  1.00  0.00    +0.053 A 
ATOM     31  C   UNL     1      18.095  -2.413 -15.112  1.00  0.00    +0.148 A 
ATOM     32  C   UNL     1      18.802  -2.435 -13.907  1.00  0.00    +0.185 A 
ATOM     33  C   UNL     1      18.322  -1.322 -15.927  1.00  0.00    +0.149 A 
ATOM     34  C   UNL     1      19.780  -0.435 -14.458  1.00  0.00    +0.216 A 
ATOM     35  H   UNL     1      17.764  -0.493 -17.767  1.00  0.00    +0.000 HD
ATOM     36  H   UNL     1      17.004  -1.979 -17.415  1.00  0.00    +0.000 HD
ATOM     37  H   UNL     1      21.155   0.555 -13.240  1.00  0.00    +0.000 HD
ATOM     38  H   UNL     1      20.811   1.363 -14.702  1.00  0.00    +0.000 HD
ENDBRANCH  22  29
ENDBRANCH   1  22
TORSDOF 9
BEGIN_RES ARG A 31
REMARK INDEX MAP 3 1 15 2 18 3 21 4 24 5 25 6 26 7 27 8 28 9 29 10 30 11 31 12
REMARK INDEX MAP 32 13
ROOT
ATOM      1  CA  ARG A  31      10.676  -9.621 -19.720  1.00  0.00    +0.171 C 
ENDROOT
BRANCH   1   2
ATOM      2  CB  ARG A  31      11.014  -8.980 -21.059  1.00  0.00    +0.038 C 
BRANCH   2   3
ATOM      3  CG  ARG A  31      11.708  -7.651 -20.941  1.00  0.00    +0.040 C 
BRANCH   3   4
ATOM      4  CD  ARG A  31      13.193  -7.838 -21.212  1.00  0.00    +0.197 C 
BRANCH   4   5
ATOM      5  NE  ARG A  31      13.998  -7.616 -20.013  1.00  0.00    -0.278 N 
ATOM      6  HE  ARG A  31      14.062  -6.650 -19.659  1.00  0.00    +0.260 HD
ATOM      7  CZ  ARG A  31      14.656  -8.556 -19.341  1.00  0.00    +0.339 C 
ATOM      8  NH1 ARG A  31      15.336  -8.216 -18.257  1.00  0.00    -0.290 N 
ATOM      9  NH2 ARG A  31      14.634  -9.832 -19.736  1.00  0.00    -0.290 N 
ATOM     10 HH12 ARG A  31      15.851  -8.933 -17.726  1.00  0.00    +0.256 HD
ATOM     11 HH11 ARG A  31      15.350  -7.234 -17.945  1.00  0.00    +0.256 HD
ATOM     12 HH22 ARG A  31      15.151 -10.545 -19.202  1.00  0.00    +0.256 HD
ATOM     13 HH21 ARG A  31      14.102 -10.103 -20.575  1.00  0.00    +0.256 HD
ENDBRANCH   4   5
ENDBRANCH   3   4
ENDBRANCH   2   3
ENDBRANCH   1   2
END_RES ARG A 31
BEGIN_RES GLU A 35
REMARK INDEX MAP 3 1 15 2 18 3 21 4 22 5 23 6
ROOT
ATOM     14  CA  GLU A  35       5.463  -7.330 -17.223  1.00  0.00    +0.171 C 
ENDROOT
BRANCH  14  15
ATOM     15  CB  GLU A  35       5.139  -7.479 -18.714  1.00  0.00    +0.041 C 
BRANCH  15  16
ATOM     16  CG  GLU A  35       4.668  -6.161 -19.314  1.00  0.00    +0.055 C 
BRANCH  16  17
ATOM     17  CD  GLU A  35       5.679  -5.489 -20.202  1.00  0.00    +0.041 C 
ATOM     18  OE1 GLU A  35       5.999  -4.305 -19.974  1.00  0.00    -0.548 OA
ATOM     19  OE2 GLU A  35       6.132  -6.149 -21.166  1.00  0.00    -0.549 OA
ENDBRANCH  16  17
ENDBRANCH  15  16
ENDBRANCH  14  15
END_RES GLU A 35
ENDMDL
MODEL 2
REMARK VINA RESULT:    -9.844      1.177      1.587
REMARK INTER + INTRA:         -20.352
REMARK INTER:                 -16.124
REMARK INTRA:                  -4.228
REMARK UNBOUND:                -5.329
REMARK  Name = 126941
REMARK  10 active torsions:
REMARK  status: ('A' for Active; 'I' for Inactive)
REMARK    1  A    between atoms: N_6  and  C_16
REMARK    2  A    between atoms: N_6  and  C_18
REMARK    3  A    between atoms: N_6  and  C_27
REMARK    4  A    between atoms: N_7  and  CA_14
REMARK    5  A    between atoms: CA_14  and  CB_15
REMARK    6  A    between atoms: CA_14  and  C_23
REMARK    7  A    between atoms: CB_15  and  CG_17
REMARK    8  A    between atoms: CG_17  and  CD_28
REMARK    9  A    between atoms: C_18  and  C_26
REMARK   10  A    between atoms: C_19  and  C_20
REMARK                            x       y       z     vdW  Elec       q    Type
REMARK                         _______ _______ _______ _____ _____    ______ ____
ROOT
ATOM      1  N   UNL     1      14.697  -5.210 -14.824  1.00  0.00    -0.327 N 
ATOM      2  C   UNL     1      14.120  -5.276 -13.496  1.00  0.00    +0.001 C 
ENDROOT
BRANCH   1   3
ATOM      3  C   UNL     1      13.923  -4.768 -15.917  1.00  0.00    +0.030 A 
ATOM      4  C   UNL     1      12.391  -3.895 -18.079  1.00  0.00    +0.037 A 
ATOM      5  C   UNL     1      13.444  -5.689 -16.850  1.00  0.00    -0.040 A 
ATOM      6  C   UNL     1      13.636  -3.411 -16.067  1.00  0.00    -0.040 A 
ATOM      7  C   UNL     1      12.677  -5.253 -17.931  1.00  0.00    -0.048 A 
ATOM      8  C   UNL     1      12.871  -2.975 -17.148  1.00  0.00    -0.048 A 
BRANCH   4  11
ATOM      9  O   UNL     1      10.917  -2.400 -19.122  1.00  0.00    -0.270 OA
ATOM     10  N   UNL     1      11.643  -4.210 -20.378  1.00  0.00    -0.298 N 
ATOM     11  C   ACE A   0      11.575  -3.431 -19.231  1.00  0.00    +0.245 C 
ATOM     12  H   UNL     1      12.200  -5.021 -20.367  1.00  0.00    +0.000 HD
BRANCH  10  13
ATOM     13  CA  UNL     1      10.928  -3.877 -21.584  1.00  0.00    +0.121 C 
BRANCH  13  16
ATOM     14  O   UNL     1       8.605  -3.539 -21.991  1.00  0.00    -0.479 OA
ATOM     15  OXT UNL     1       9.186  -5.412 -20.850  1.00  0.00    -0.249 OA
ATOM     16  C   UNL     1       9.509  -4.385 -21.432  1.00  0.00    +0.325 C 
ENDBRANCH  13  16
BRANCH  13  17
ATOM     17  CB  UNL     1      11.633  -4.381 -22.850  1.00  0.00    -0.014 C 
BRANCH  17  18
ATOM     18  CG  UNL     1      10.813  -5.320 -23.742  1.00  0.00    +0.047 C 
BRANCH  18  21
ATOM     19  OE1 UNL     1      10.379  -4.994 -26.056  1.00  0.00    -0.481 OA
ATOM     20  OE2 UNL     1      12.441  -5.760 -25.501  1.00  0.00    -0.251 OA
ATOM     21  CD  UNL     1      11.320  -5.405 -25.167  1.00  0.00    +0.305 C 
ENDBRANCH  18  21
ENDBRANCH  17  18
ENDBRANCH  13  17
ENDBRANCH  10  13
ENDBRANCH   4  11
ENDBRANCH   1   3
BRANCH   1  22
ATOM     22  C   UNL     1      16.074  -5.618 -15.017  1.00  0.00    +0.056 C 
BRANCH  22  29
ATOM     23  N   UNL     1      17.161  -3.486 -15.485  1.00  0.00    -0.242 NA
ATOM     24  N   UNL     1      18.531  -3.552 -13.081  1.00  0.00    -0.232 NA
ATOM     25  N   UNL     1      19.533  -1.525 -13.579  1.00  0.00    -0.193 NA
ATOM     26  N   UNL     1      19.054  -0.386 -15.634  1.00  0.00    -0.198 NA
ATOM     27  N   UNL     1      17.539  -1.341 -17.175  1.00  0.00    -0.341 N 
ATOM     28  N   UNL     1      20.550   0.529 -14.082  1.00  0.00    -0.327 N 
ATOM     29  C   UNL     1      17.011  -4.508 -14.629  1.00  0.00    +0.077 A 
ATOM     30  C   UNL     1      17.688  -4.541 -13.440  1.00  0.00    +0.053 A 
ATOM     31  C   UNL     1      18.003  -2.499 -15.124  1.00  0.00    +0.148 A 
ATOM     32  C   UNL     1      18.701  -2.520 -13.915  1.00  0.00    +0.185 A 
ATOM     33  C   UNL     1      18.227  -1.404 -15.935  1.00  0.00    +0.149 A 
ATOM     34  C   UNL     1      19.669  -0.510 -14.452  1.00  0.00    +0.216 A 
ATOM     35  H   UNL     1      17.676  -0.573 -17.776  1.00  0.00    +0.000 HD
ATOM     36  H   UNL     1      16.924  -2.066 -17.434  1.00  0.00    +0.000 HD
ATOM     37  H   UNL     1      21.027   0.486 -13.222  1.00  0.00    +0.000 HD
ATOM     38  H   UNL     1      20.687   1.296 -14.683  1.00  0.00    +0.000 HD
ENDBRANCH  22  29
ENDBRANCH   1  22
TORSDOF 9
BEGIN_RES ARG A 31
REMARK INDEX MAP 3 1 15 2 18 3 21 4 24 5 25 6 26 7 27 8 28 9 29 10 30 11 31 12
REMARK INDEX MAP 32 13
ROOT
ATOM      1  CA  ARG A  31      10.676  -9.621 -19.720  1.00  0.00    +0.171 C 
ENDROOT
BRANCH   1   2
ATOM      2  CB  ARG A  31      11.014  -8.980 -21.059  1.00  0.00    +0.038 C 
BRANCH   2   3
ATOM      3  CG  ARG A  31      11.711  -7.652 -20.941  1.00  0.00    +0.040 C 
BRANCH   3   4
ATOM      4  CD  ARG A  31      13.201  -7.886 -20.748  1.00  0.00    +0.197 C 
BRANCH   4   5
ATOM      5  NE  ARG A  31      14.005  -6.949 -21.529  1.00  0.00    -0.278 N 
ATOM      6  HE  ARG A  31      14.497  -6.205 -21.012  1.00  0.00    +0.260 HD
ATOM      7  CZ  ARG A  31      14.156  -6.976 -22.849  1.00  0.00    +0.339 C 
ATOM      8  NH1 ARG A  31      14.931  -6.071 -23.428  1.00  0.00    -0.290 N 
ATOM      9  NH2 ARG A  31      13.547  -7.901 -23.597  1.00  0.00    -0.290 N 
ATOM     10 HH12 ARG A  31      15.057  -6.079 -24.450  1.00  0.00    +0.256 HD
ATOM     11 HH11 ARG A  31      15.408  -5.360 -22.855  1.00  0.00    +0.256 HD
ATOM     12 HH22 ARG A  31      13.676  -7.904 -24.618  1.00  0.00    +0.256 HD
ATOM     13 HH21 ARG A  31      12.948  -8.610 -23.152  1.00  0.00    +0.256 HD
ENDBRANCH   4   5
ENDBRANCH   3   4
ENDBRANCH   2   3
ENDBRANCH   1   2
END_RES ARG A 31
BEGIN_RES GLU A 35
REMARK INDEX MAP 3 1 15 2 18 3 21 4 22 5 23 6
ROOT
ATOM     14  CA  GLU A  35       5.463  -7.330 -17.223  1.00  0.00    +0.171 C 
ENDROOT
BRANCH  14  15
ATOM     15  CB  GLU A  35       5.139  -7.479 -18.714  1.00  0.00    +0.041 C 
BRANCH  15  16
ATOM     16  CG  GLU A  35       4.661  -6.163 -19.312  1.00  0.00    +0.055 C 
BRANCH  16  17
ATOM     17  CD  GLU A  35       5.722  -5.401 -20.059  1.00  0.00    +0.041 C 
ATOM     18  OE1 GLU A  35       6.344  -4.491 -19.475  1.00  0.00    -0.548 OA
ATOM     19  OE2 GLU A  35       5.909  -5.698 -21.262  1.00  0.00    -0.549 OA
ENDBRANCH  16  17
ENDBRANCH  15  16
ENDBRANCH  14  15
END_RES GLU A 35
ENDMDL
MODEL 3
REMARK VINA RESULT:    -9.611      1.786      3.379
REMARK INTER + INTRA:         -19.996
REMARK INTER:                 -14.812
REMARK INTRA:                  -5.185
REMARK UNBOUND:                -5.329
REMARK  Name = 126941
REMARK  10 active torsions:
REMARK  status: ('A' for Active; 'I' for Inactive)
REMARK    1  A    between atoms: N_6  and  C_16
REMARK    2  A    between atoms: N_6  and  C_18
REMARK    3  A    between atoms: N_6  and  C_27
REMARK    4  A    between atoms: N_7  and  CA_14
REMARK    5  A    between atoms: CA_14  and  CB_15
REMARK    6  A    between atoms: CA_14  and  C_23
REMARK    7  A    between atoms: CB_15  and  CG_17
REMARK    8  A    between atoms: CG_17  and  CD_28
REMARK    9  A    between atoms: C_18  and  C_26
REMARK   10  A    between atoms: C_19  and  C_20
REMARK                            x       y       z     vdW  Elec       q    Type
REMARK                         _______ _______ _______ _____ _____    ______ ____
ROOT
ATOM      1  N   UNL     1      14.956  -5.408 -14.593  1.00  0.00    -0.327 N 
ATOM      2  C   UNL     1      13.960  -5.343 -13.541  1.00  0.00    +0.001 C 
ENDROOT
BRANCH   1   3
ATOM      3  C   UNL     1      14.577  -5.265 -15.944  1.00  0.00    +0.030 A 
ATOM      4  C   UNL     1      13.828  -4.980 -18.616  1.00  0.00    +0.037 A 
ATOM      5  C   UNL     1      13.793  -4.179 -16.336  1.00  0.00    -0.040 A 
ATOM      6  C   UNL     1      14.985  -6.207 -16.887  1.00  0.00    -0.040 A 
ATOM      7  C   UNL     1      13.418  -4.036 -17.673  1.00  0.00    -0.048 A 
ATOM      8  C   UNL     1      14.610  -6.065 -18.222  1.00  0.00    -0.048 A 
BRANCH   4  11
ATOM      9  O   UNL     1      12.382  -4.245 -20.309  1.00  0.00    -0.270 OA
ATOM     10  N   UNL     1      14.309  -5.351 -20.977  1.00  0.00    -0.298 N 
ATOM     11  C   ACE A   0      13.429  -4.828 -20.039  1.00  0.00    +0.245 C 
ATOM     12  H   UNL     1      15.125  -5.801 -20.660  1.00  0.00    +0.000 HD
BRANCH  10  13
ATOM     13  CA  UNL     1      14.074  -5.260 -22.395  1.00  0.00    +0.121 C 
BRANCH  13  16
ATOM     14  O   UNL     1      13.706  -6.749 -24.219  1.00  0.00    -0.479 OA
ATOM     15  OXT UNL     1      14.791  -7.588 -22.411  1.00  0.00    -0.249 OA
ATOM     16  C   UNL     1      14.253  -6.647 -22.979  1.00  0.00    +0.325 C 
ENDBRANCH  13  16
BRANCH  13  17
ATOM     17  CB  UNL     1      14.936  -4.188 -23.072  1.00  0.00    -0.014 C 
BRANCH  17  18
ATOM     18  CG  UNL     1      16.398  -4.118 -22.612  1.00  0.00    +0.047 C 
BRANCH  18  21
ATOM     19  OE1 UNL     1      17.644  -5.887 -23.595  1.00  0.00    -0.481 OA
ATOM     20  OE2 UNL     1      17.889  -3.830 -24.517  1.00  0.00    -0.251 OA
ATOM     21  CD  UNL     1      17.391  -4.555 -23.669  1.00  0.00    +0.305 C 
ENDBRANCH  18  21
ENDBRANCH  17  18
ENDBRANCH  13  17
ENDBRANCH  10  13
ENDBRANCH   4  11
ENDBRANCH   1   3
BRANCH   1  22
ATOM     22  C   UNL     1      16.342  -5.637 -14.239  1.00  0.00    +0.056 C 
BRANCH  22  29
ATOM     23  N   UNL     1      17.006  -3.616 -15.432  1.00  0.00    -0.242 NA
ATOM     24  N   UNL     1      18.635  -2.809 -13.345  1.00  0.00    -0.232 NA
ATOM     25  N   UNL     1      19.229  -0.907 -14.525  1.00  0.00    -0.193 NA
ATOM     26  N   UNL     1      18.339  -0.484 -16.711  1.00  0.00    -0.198 NA
ATOM     27  N   UNL     1      16.833  -2.027 -17.678  1.00  0.00    -0.341 N 
ATOM     28  N   UNL     1      19.834   1.020 -15.719  1.00  0.00    -0.327 N 
ATOM     29  C   UNL     1      17.125  -4.355 -14.319  1.00  0.00    +0.077 A 
ATOM     30  C   UNL     1      17.929  -3.955 -13.287  1.00  0.00    +0.053 A 
ATOM     31  C   UNL     1      17.712  -2.471 -15.489  1.00  0.00    +0.148 A 
ATOM     32  C   UNL     1      18.538  -2.051 -14.444  1.00  0.00    +0.185 A 
ATOM     33  C   UNL     1      17.660  -1.640 -16.591  1.00  0.00    +0.149 A 
ATOM     34  C   UNL     1      19.097  -0.182 -15.651  1.00  0.00    +0.216 A 
ATOM     35  H   UNL     1      16.773  -1.456 -18.479  1.00  0.00    +0.000 HD
ATOM     36  H   UNL     1      16.319  -2.866 -17.632  1.00  0.00    +0.000 HD
ATOM     37  H   UNL     1      20.407   1.289 -14.965  1.00  0.00    +0.000 HD
ATOM     38  H   UNL     1      19.774   1.590 -16.519  1.00  0.00    +0.000 HD
ENDBRANCH  22  29
ENDBRANCH   1  22
TORSDOF 9
BEGIN_RES ARG A 31
REMARK INDEX MAP 3 1 15 2 18 3 21 4 24 5 25 6 26 7 27 8 28 9 29 10 30 11 31 12
REMARK INDEX MAP 32 13
ROOT
ATOM      1  CA  ARG A  31      10.676  -9.621 -19.720  1.00  0.00    +0.171 C 
ENDROOT
BRANCH   1   2
ATOM      2  CB  ARG A  31      11.014  -8.980 -21.059  1.00  0.00    +0.038 C 
BRANCH   2   3
ATOM      3  CG  ARG A  31      11.351  -7.517 -20.967  1.00  0.00    +0.040 C 
BRANCH   3   4
ATOM      4  CD  ARG A  31      10.661  -6.774 -22.100  1.00  0.00    +0.197 C 
BRANCH   4   5
ATOM      5  NE  ARG A  31       9.704  -5.788 -21.602  1.00  0.00    -0.278 N 
ATOM      6  HE  ARG A  31       9.009  -6.111 -20.913  1.00  0.00    +0.260 HD
ATOM      7  CZ  ARG A  31       9.655  -4.510 -21.965  1.00  0.00    +0.339 C 
ATOM      8  NH1 ARG A  31       8.742  -3.720 -21.419  1.00  0.00    -0.290 N 
ATOM      9  NH2 ARG A  31      10.512  -4.011 -22.860  1.00  0.00    -0.290 N 
ATOM     10 HH12 ARG A  31       8.692  -2.728 -21.691  1.00  0.00    +0.256 HD
ATOM     11 HH11 ARG A  31       8.082  -4.099 -20.724  1.00  0.00    +0.256 HD
ATOM     12 HH22 ARG A  31      10.457  -3.018 -23.127  1.00  0.00    +0.256 HD
ATOM     13 HH21 ARG A  31      11.228  -4.619 -23.282  1.00  0.00    +0.256 HD
ENDBRANCH   4   5
ENDBRANCH   3   4
ENDBRANCH   2   3
ENDBRANCH   1   2
END_RES ARG A 31
BEGIN_RES GLU A 35
REMARK INDEX MAP 3 1 15 2 18 3 21 4 22 5 23 6
ROOT
ATOM     14  CA  GLU A  35       5.463  -7.330 -17.223  1.00  0.00    +0.171 C 
ENDROOT
BRANCH  14  15
ATOM     15  CB  GLU A  35       5.139  -7.479 -18.714  1.00  0.00    +0.041 C 
BRANCH  15  16
ATOM     16  CG  GLU A  35       4.863  -6.128 -19.359  1.00  0.00    +0.055 C 
BRANCH  16  17
ATOM     17  CD  GLU A  35       6.081  -5.453 -19.929  1.00  0.00    +0.041 C 
ATOM     18  OE1 GLU A  35       6.664  -5.971 -20.903  1.00  0.00    -0.548 OA
ATOM     19  OE2 GLU A  35       6.479  -4.406 -19.368  1.00  0.00    -0.549 OA
ENDBRANCH  16  17
ENDBRANCH  15  16
ENDBRANCH  14  15
END_RES GLU A 35
ENDMDL
MODEL 4
REMARK VINA RESULT:    -9.609      1.892      3.278
REMARK INTER + INTRA:         -19.993
REMARK INTER:                 -14.383
REMARK INTRA:                  -5.610
REMARK UNBOUND:                -5.329
REMARK  Name = 126941
REMARK  10 active torsions:
REMARK  status: ('A' for Active; 'I' for Inactive)
REMARK    1  A    between atoms: N_6  and  C_16
REMARK    2  A    between atoms: N_6  and  C_18
REMARK    3  A    between atoms: N_6  and  C_27
REMARK    4  A    between atoms: N_7  and  CA_14
REMARK    5  A    between atoms: CA_14  and  CB_15
REMARK    6  A    between atoms: CA_14  and  C_23
REMARK    7  A    between atoms: CB_15  and  CG_17
REMARK    8  A    between atoms: CG_17  and  CD_28
REMARK    9  A    between atoms: C_18  and  C_26
REMARK   10  A    between atoms: C_19  and  C_20
REMARK                            x       y       z     vdW  Elec       q    Type
REMARK                         _______ _______ _______ _____ _____    ______ ____
ROOT
ATOM      1  N   UNL     1      14.092  -5.992 -16.051  1.00  0.00    -0.327 N 
ATOM      2  C   UNL     1      14.516  -7.357 -15.810  1.00  0.00    +0.001 C 
ENDROOT
BRANCH   1   3
ATOM      3  C   UNL     1      13.864  -5.537 -17.366  1.00  0.00    +0.030 A 
ATOM      4  C   UNL     1      13.412  -4.637 -19.968  1.00  0.00    +0.037 A 
ATOM      5  C   UNL     1      12.883  -4.575 -17.610  1.00  0.00    -0.040 A 
ATOM      6  C   UNL     1      14.617  -6.049 -18.423  1.00  0.00    -0.040 A 
ATOM      7  C   UNL     1      12.657  -4.125 -18.912  1.00  0.00    -0.048 A 
ATOM      8  C   UNL     1      14.392  -5.599 -19.722  1.00  0.00    -0.048 A 
BRANCH   4  11
ATOM      9  O   UNL     1      12.732  -3.023 -21.527  1.00  0.00    -0.270 OA
ATOM     10  N   UNL     1      13.494  -5.046 -22.370  1.00  0.00    -0.298 N 
ATOM     11  C   ACE A   0      13.171  -4.156 -21.353  1.00  0.00    +0.245 C 
ATOM     12  H   UNL     1      13.841  -5.934 -22.128  1.00  0.00    +0.000 HD
BRANCH  10  13
ATOM     13  CA  UNL     1      13.340  -4.717 -23.764  1.00  0.00    +0.121 C 
BRANCH  13  16
ATOM     14  O   UNL     1      11.197  -5.133 -24.719  1.00  0.00    -0.479 OA
ATOM     15  OXT UNL     1      12.587  -6.913 -24.500  1.00  0.00    -0.249 OA
ATOM     16  C   UNL     1      12.373  -5.715 -24.366  1.00  0.00    +0.325 C 
ENDBRANCH  13  16
BRANCH  13  17
ATOM     17  CB  UNL     1      14.681  -4.630 -24.504  1.00  0.00    -0.014 C 
BRANCH  17  18
ATOM     18  CG  UNL     1      15.829  -5.453 -23.905  1.00  0.00    +0.047 C 
BRANCH  18  21
ATOM     19  OE1 UNL     1      18.080  -4.785 -23.539  1.00  0.00    -0.481 OA
ATOM     20  OE2 UNL     1      16.512  -3.890 -22.165  1.00  0.00    -0.251 OA
ATOM     21  CD  UNL     1      16.807  -4.633 -23.091  1.00  0.00    +0.305 C 
ENDBRANCH  18  21
ENDBRANCH  17  18
ENDBRANCH  13  17
ENDBRANCH  10  13
ENDBRANCH   4  11
ENDBRANCH   1   3
BRANCH   1  22
ATOM     22  C   UNL     1      13.920  -5.097 -14.924  1.00  0.00    +0.056 C 
BRANCH  22  29
ATOM     23  N   UNL     1      15.714  -3.508 -15.378  1.00  0.00    -0.242 NA
ATOM     24  N   UNL     1      17.077  -4.252 -13.087  1.00  0.00    -0.232 NA
ATOM     25  N   UNL     1      18.750  -2.726 -13.568  1.00  0.00    -0.193 NA
ATOM     26  N   UNL     1      18.638  -1.352 -15.530  1.00  0.00    -0.198 NA
ATOM     27  N   UNL     1      16.795  -1.554 -16.995  1.00  0.00    -0.341 N 
ATOM     28  N   UNL     1      20.448  -1.180 -14.055  1.00  0.00    -0.327 N 
ATOM     29  C   UNL     1      15.230  -4.453 -14.559  1.00  0.00    +0.077 A 
ATOM     30  C   UNL     1      15.903  -4.821 -13.426  1.00  0.00    +0.053 A 
ATOM     31  C   UNL     1      16.886  -2.940 -15.037  1.00  0.00    +0.148 A 
ATOM     32  C   UNL     1      17.586  -3.306 -13.885  1.00  0.00    +0.185 A 
ATOM     33  C   UNL     1      17.470  -1.958 -15.814  1.00  0.00    +0.149 A 
ATOM     34  C   UNL     1      19.218  -1.780 -14.404  1.00  0.00    +0.216 A 
ATOM     35  H   UNL     1      17.184  -0.855 -17.570  1.00  0.00    +0.000 HD
ATOM     36  H   UNL     1      15.937  -1.973 -17.239  1.00  0.00    +0.000 HD
ATOM     37  H   UNL     1      20.916  -1.460 -13.235  1.00  0.00    +0.000 HD
ATOM     38  H   UNL     1      20.836  -0.483 -14.630  1.00  0.00    +0.000 HD
ENDBRANCH  22  29
ENDBRANCH   1  22
TORSDOF 9
BEGIN_RES ARG A 31
REMARK INDEX MAP 3 1 15 2 18 3 21 4 24 5 25 6 26 7 27 8 28 9 29 10 30 11 31 12
REMARK INDEX MAP 32 13
ROOT
ATOM      1  CA  ARG A  31      10.676  -9.621 -19.720  1.00  0.00    +0.171 C 
ENDROOT
BRANCH   1   2
ATOM      2  CB  ARG A  31      11.014  -8.980 -21.059  1.00  0.00    +0.038 C 
BRANCH   2   3
ATOM      3  CG  ARG A  31      11.353  -7.517 -20.967  1.00  0.00    +0.040 C 
BRANCH   3   4
ATOM      4  CD  ARG A  31      10.216  -6.703 -21.563  1.00  0.00    +0.197 C 
BRANCH   4   5
ATOM      5  NE  ARG A  31       9.797  -5.620 -20.676  1.00  0.00    -0.278 N 
ATOM      6  HE  ARG A  31       9.634  -5.857 -19.687  1.00  0.00    +0.260 HD
ATOM      7  CZ  ARG A  31       9.610  -4.355 -21.040  1.00  0.00    +0.339 C 
ATOM      8  NH1 ARG A  31       9.244  -3.470 -20.125  1.00  0.00    -0.290 N 
ATOM      9  NH2 ARG A  31       9.791  -3.963 -22.304  1.00  0.00    -0.290 N 
ATOM     10 HH12 ARG A  31       9.095  -2.486 -20.391  1.00  0.00    +0.256 HD
ATOM     11 HH11 ARG A  31       9.109  -3.765 -19.147  1.00  0.00    +0.256 HD
ATOM     12 HH22 ARG A  31       9.640  -2.979 -22.565  1.00  0.00    +0.256 HD
ATOM     13 HH21 ARG A  31      10.081  -4.646 -23.018  1.00  0.00    +0.256 HD
ENDBRANCH   4   5
ENDBRANCH   3   4
ENDBRANCH   2   3
ENDBRANCH   1   2
END_RES ARG A 31
BEGIN_RES GLU A 35
REMARK INDEX MAP 3 1 15 2 18 3 21 4 22 5 23 6
ROOT
ATOM     14  CA  GLU A  35       5.463  -7.330 -17.223  1.00  0.00    +0.171 C 
ENDROOT
BRANCH  14  15
ATOM     15  CB  GLU A  35       5.139  -7.479 -18.714  1.00  0.00    +0.041 C 
BRANCH  15  16
ATOM     16  CG  GLU A  35       4.861  -6.128 -19.359  1.00  0.00    +0.055 C 
BRANCH  16  17
ATOM     17  CD  GLU A  35       6.078  -5.454 -19.932  1.00  0.00    +0.041 C 
ATOM     18  OE1 GLU A  35       6.392  -4.316 -19.527  1.00  0.00    -0.548 OA
ATOM     19  OE2 GLU A  35       6.709  -6.061 -20.828  1.00  0.00    -0.549 OA
ENDBRANCH  16  17
ENDBRANCH  15  16
ENDBRANCH  14  15
END_RES GLU A 35
ENDMDL
MODEL 5
REMARK VINA RESULT:    -9.199      2.529      4.228
REMARK INTER + INTRA:         -19.369
REMARK INTER:                 -15.124
REMARK INTRA:                  -4.244
REMARK UNBOUND:                -5.329
REMARK  Name = 126941
REMARK  10 active torsions:
REMARK  status: ('A' for Active; 'I' for Inactive)
REMARK    1  A    between atoms: N_6  and  C_16
REMARK    2  A    between atoms: N_6  and  C_18
REMARK    3  A    between atoms: N_6  and  C_27
REMARK    4  A    between atoms: N_7  and  CA_14
REMARK    5  A    between atoms: CA_14  and  CB_15
REMARK    6  A    between atoms: CA_14  and  C_23
REMARK    7  A    between atoms: CB_15  and  CG_17
REMARK    8  A    between atoms: CG_17  and  CD_28
REMARK    9  A    between atoms: C_18  and  C_26
REMARK   10  A    between atoms: C_19  and  C_20
REMARK                            x       y       z     vdW  Elec       q    Type
REMARK                         _______ _______ _______ _____ _____    ______ ____
ROOT
ATOM      1  N   UNL     1      12.919  -4.428 -17.611  1.00  0.00    -0.327 N 
ATOM      2  C   UNL     1      13.631  -5.679 -17.439  1.00  0.00    +0.001 C 
ENDROOT
BRANCH   1   3
ATOM      3  C   UNL     1      11.955  -4.290 -18.630  1.00  0.00    +0.030 A 
ATOM      4  C   UNL     1      10.046  -4.019 -20.646  1.00  0.00    +0.037 A 
ATOM      5  C   UNL     1      11.527  -5.412 -19.341  1.00  0.00    -0.040 A 
ATOM      6  C   UNL     1      11.428  -3.034 -18.928  1.00  0.00    -0.040 A 
ATOM      7  C   UNL     1      10.572  -5.277 -20.350  1.00  0.00    -0.048 A 
ATOM      8  C   UNL     1      10.474  -2.898 -19.936  1.00  0.00    -0.048 A 
BRANCH   4  11
ATOM      9  O   UNL     1       9.359  -3.384 -22.796  1.00  0.00    -0.270 OA
ATOM     10  N   UNL     1       7.756  -4.341 -21.419  1.00  0.00    -0.298 N 
ATOM     11  C   ACE A   0       9.028  -3.875 -21.720  1.00  0.00    +0.245 C 
ATOM     12  H   UNL     1       7.590  -4.720 -20.526  1.00  0.00    +0.000 HD
BRANCH  10  13
ATOM     13  CA  UNL     1       6.670  -4.294 -22.365  1.00  0.00    +0.121 C 
BRANCH  13  16
ATOM     14  O   UNL     1       4.489  -3.939 -21.474  1.00  0.00    -0.479 OA
ATOM     15  OXT UNL     1       5.794  -2.104 -21.758  1.00  0.00    -0.249 OA
ATOM     16  C   UNL     1       5.642  -3.316 -21.833  1.00  0.00    +0.325 C 
ENDBRANCH  13  16
BRANCH  13  17
ATOM     17  CB  UNL     1       6.098  -5.681 -22.682  1.00  0.00    -0.014 C 
BRANCH  17  18
ATOM     18  CG  UNL     1       6.566  -6.311 -24.000  1.00  0.00    +0.047 C 
BRANCH  18  21
ATOM     19  OE1 UNL     1       8.568  -6.133 -25.269  1.00  0.00    -0.481 OA
ATOM     20  OE2 UNL     1       8.758  -6.978 -23.173  1.00  0.00    -0.251 OA
ATOM     21  CD  UNL     1       8.062  -6.533 -24.073  1.00  0.00    +0.305 C 
ENDBRANCH  18  21
ENDBRANCH  17  18
ENDBRANCH  13  17
ENDBRANCH  10  13
ENDBRANCH   4  11
ENDBRANCH   1   3
BRANCH   1  22
ATOM     22  C   UNL     1      13.223  -3.316 -16.732  1.00  0.00    +0.056 C 
BRANCH  22  29
ATOM     23  N   UNL     1      15.424  -2.831 -15.800  1.00  0.00    -0.242 NA
ATOM     24  N   UNL     1      16.439  -2.191 -18.294  1.00  0.00    -0.232 NA
ATOM     25  N   UNL     1      18.508  -1.744 -17.353  1.00  0.00    -0.193 NA
ATOM     26  N   UNL     1      18.865  -1.979 -14.993  1.00  0.00    -0.198 NA
ATOM     27  N   UNL     1      17.085  -2.676 -13.605  1.00  0.00    -0.341 N 
ATOM     28  N   UNL     1      20.604  -1.290 -16.402  1.00  0.00    -0.327 N 
ATOM     29  C   UNL     1      14.655  -2.890 -16.898  1.00  0.00    +0.077 A 
ATOM     30  C   UNL     1      15.158  -2.574 -18.131  1.00  0.00    +0.053 A 
ATOM     31  C   UNL     1      16.704  -2.448 -15.964  1.00  0.00    +0.148 A 
ATOM     32  C   UNL     1      17.230  -2.121 -17.216  1.00  0.00    +0.185 A 
ATOM     33  C   UNL     1      17.577  -2.354 -14.897  1.00  0.00    +0.149 A 
ATOM     34  C   UNL     1      19.260  -1.691 -16.239  1.00  0.00    +0.216 A 
ATOM     35  H   UNL     1      17.681  -2.620 -12.824  1.00  0.00    +0.000 HD
ATOM     36  H   UNL     1      16.147  -2.955 -13.491  1.00  0.00    +0.000 HD
ATOM     37  H   UNL     1      20.946  -1.067 -17.298  1.00  0.00    +0.000 HD
ATOM     38  H   UNL     1      21.199  -1.234 -15.620  1.00  0.00    +0.000 HD
ENDBRANCH  22  29
ENDBRANCH   1  22
TORSDOF 9
BEGIN_RES ARG A 31
REMARK INDEX MAP 3 1 15 2 18 3 21 4 24 5 25 6 26 7 27 8 28 9 29 10 30 11 31 12
REMARK INDEX MAP 32 13
ROOT
ATOM      1  CA  ARG A  31      10.676  -9.621 -19.720  1.00  0.00    +0.171 C 
ENDROOT
BRANCH   1   2
ATOM      2  CB  ARG A  31      11.014  -8.980 -21.059  1.00  0.00    +0.038 C 
BRANCH   2   3
ATOM      3  CG  ARG A  31      12.392  -8.381 -21.118  1.00  0.00    +0.040 C 
BRANCH   3   4
ATOM      4  CD  ARG A  31      12.757  -8.110 -22.569  1.00  0.00    +0.197 C 
BRANCH   4   5
ATOM      5  NE  ARG A  31      11.847  -7.151 -23.190  1.00  0.00    -0.278 N 
ATOM      6  HE  ARG A  31      10.852  -7.413 -23.247  1.00  0.00    +0.260 HD
ATOM      7  CZ  ARG A  31      12.195  -5.968 -23.688  1.00  0.00    +0.339 C 
ATOM      8  NH1 ARG A  31      11.261  -5.188 -24.210  1.00  0.00    -0.290 N 
ATOM      9  NH2 ARG A  31      13.465  -5.554 -23.664  1.00  0.00    -0.290 N 
ATOM     10 HH12 ARG A  31      11.515  -4.270 -24.600  1.00  0.00    +0.256 HD
ATOM     11 HH11 ARG A  31      10.279  -5.501 -24.226  1.00  0.00    +0.256 HD
ATOM     12 HH22 ARG A  31      13.714  -4.635 -24.055  1.00  0.00    +0.256 HD
ATOM     13 HH21 ARG A  31      14.195  -6.153 -23.254  1.00  0.00    +0.256 HD
ENDBRANCH   4   5
ENDBRANCH   3   4
ENDBRANCH   2   3
ENDBRANCH   1   2
END_RES ARG A 31
BEGIN_RES GLU A 35
REMARK INDEX MAP 3 1 15 2 18 3 21 4 22 5 23 6
ROOT
ATOM     14  CA  GLU A  35       5.463  -7.330 -17.223  1.00  0.00    +0.171 C 
ENDROOT
BRANCH  14  15
ATOM     15  CB  GLU A  35       5.139  -7.479 -18.714  1.00  0.00    +0.041 C 
BRANCH  15  16
ATOM     16  CG  GLU A  35       4.451  -6.235 -19.259  1.00  0.00    +0.055 C 
BRANCH  16  17
ATOM     17  CD  GLU A  35       2.964  -6.379 -19.440  1.00  0.00    +0.041 C 
ATOM     18  OE1 GLU A  35       2.513  -7.414 -19.971  1.00  0.00    -0.548 OA
ATOM     19  OE2 GLU A  35       2.241  -5.423 -19.075  1.00  0.00    -0.549 OA
ENDBRANCH  16  17
ENDBRANCH  15  16
ENDBRANCH  14  15
END_RES GLU A 35
ENDMDL
MODEL 6
REMARK VINA RESULT:    -8.942      2.236      3.400
REMARK INTER + INTRA:         -18.976
REMARK INTER:                 -14.477
REMARK INTRA:                  -4.499
REMARK UNBOUND:                -5.329
REMARK  Name = 126941
REMARK  10 active torsions:
REMARK  status: ('A' for Active; 'I' for Inactive)
REMARK    1  A    between atoms: N_6  and  C_16
REMARK    2  A    between atoms: N_6  and  C_18
REMARK    3  A    between atoms: N_6  and  C_27
REMARK    4  A    between atoms: N_7  and  CA_14
REMARK    5  A    between atoms: CA_14  and  CB_15
REMARK    6  A    between atoms: CA_14  and  C_23
REMARK    7  A    between atoms: CB_15  and  CG_17
REMARK    8  A    between atoms: CG_17  and  CD_28
REMARK    9  A    between atoms: C_18  and  C_26
REMARK   10  A    between atoms: C_19  and  C_20
REMARK                            x       y       z     vdW  Elec       q    Type
REMARK                         _______ _______ _______ _____ _____    ______ ____
ROOT
ATOM      1  N   UNL     1      13.074  -3.123 -17.167  1.00  0.00    -0.327 N 
ATOM      2  C   UNL     1      12.757  -2.018 -16.285  1.00  0.00    +0.001 C 
ENDROOT
BRANCH   1   3
ATOM      3  C   UNL     1      12.301  -3.358 -18.323  1.00  0.00    +0.030 A 
ATOM      4  C   UNL     1      10.772  -3.824 -20.609  1.00  0.00    +0.037 A 
ATOM      5  C   UNL     1      12.585  -4.453 -19.140  1.00  0.00    -0.040 A 
ATOM      6  C   UNL     1      11.254  -2.496 -18.650  1.00  0.00    -0.040 A 
ATOM      7  C   UNL     1      11.819  -4.687 -20.283  1.00  0.00    -0.048 A 
ATOM      8  C   UNL     1      10.491  -2.729 -19.793  1.00  0.00    -0.048 A 
BRANCH   4  11
ATOM      9  O   UNL     1       9.459  -3.120 -22.420  1.00  0.00    -0.270 OA
ATOM     10  N   UNL     1       9.843  -5.400 -22.221  1.00  0.00    -0.298 N 
ATOM     11  C   ACE A   0       9.958  -4.073 -21.827  1.00  0.00    +0.245 C 
ATOM     12  H   UNL     1      10.281  -6.094 -21.679  1.00  0.00    +0.000 HD
BRANCH  10  13
ATOM     13  CA  UNL     1       9.107  -5.798 -23.395  1.00  0.00    +0.121 C 
BRANCH  13  16
ATOM     14  O   UNL     1       7.557  -7.256 -22.322  1.00  0.00    -0.479 OA
ATOM     15  OXT UNL     1       6.724  -5.336 -23.200  1.00  0.00    -0.249 OA
ATOM     16  C   UNL     1       7.678  -6.067 -22.970  1.00  0.00    +0.325 C 
ENDBRANCH  13  16
BRANCH  13  17
ATOM     17  CB  UNL     1       9.763  -6.969 -24.137  1.00  0.00    -0.014 C 
BRANCH  17  18
ATOM     18  CG  UNL     1       9.734  -6.889 -25.668  1.00  0.00    +0.047 C 
BRANCH  18  21
ATOM     19  OE1 UNL     1      11.774  -5.691 -25.897  1.00  0.00    -0.481 OA
ATOM     20  OE2 UNL     1       9.954  -4.816 -26.930  1.00  0.00    -0.251 OA
ATOM     21  CD  UNL     1      10.458  -5.683 -26.230  1.00  0.00    +0.305 C 
ENDBRANCH  18  21
ENDBRANCH  17  18
ENDBRANCH  13  17
ENDBRANCH  10  13
ENDBRANCH   4  11
ENDBRANCH   1   3
BRANCH   1  22
ATOM     22  C   UNL     1      14.186  -3.992 -16.838  1.00  0.00    +0.056 C 
BRANCH  22  29
ATOM     23  N   UNL     1      16.056  -3.020 -15.611  1.00  0.00    -0.242 NA
ATOM     24  N   UNL     1      17.178  -2.019 -17.935  1.00  0.00    -0.232 NA
ATOM     25  N   UNL     1      18.931  -1.118 -16.719  1.00  0.00    -0.193 NA
ATOM     26  N   UNL     1      19.039  -1.377 -14.337  1.00  0.00    -0.198 NA
ATOM     27  N   UNL     1      17.337  -2.568 -13.212  1.00  0.00    -0.341 N 
ATOM     28  N   UNL     1      20.707  -0.204 -15.488  1.00  0.00    -0.327 N 
ATOM     29  C   UNL     1      15.472  -3.213 -16.804  1.00  0.00    +0.077 A 
ATOM     30  C   UNL     1      16.027  -2.719 -17.952  1.00  0.00    +0.053 A 
ATOM     31  C   UNL     1      17.207  -2.322 -15.596  1.00  0.00    +0.148 A 
ATOM     32  C   UNL     1      17.785  -1.810 -16.761  1.00  0.00    +0.185 A 
ATOM     33  C   UNL     1      17.887  -2.067 -14.421  1.00  0.00    +0.149 A 
ATOM     34  C   UNL     1      19.500  -0.936 -15.513  1.00  0.00    +0.216 A 
ATOM     35  H   UNL     1      17.797  -2.405 -12.357  1.00  0.00    +0.000 HD
ATOM     36  H   UNL     1      16.495  -3.078 -13.229  1.00  0.00    +0.000 HD
ATOM     37  H   UNL     1      21.089   0.143 -16.327  1.00  0.00    +0.000 HD
ATOM     38  H   UNL     1      21.166  -0.041 -14.633  1.00  0.00    +0.000 HD
ENDBRANCH  22  29
ENDBRANCH   1  22
TORSDOF 9
BEGIN_RES ARG A 31
REMARK INDEX MAP 3 1 15 2 18 3 21 4 24 5 25 6 26 7 27 8 28 9 29 10 30 11 31 12
REMARK INDEX MAP 32 13
ROOT
ATOM      1  CA  ARG A  31      10.676  -9.621 -19.720  1.00  0.00    +0.171 C 
ENDROOT
BRANCH   1   2
ATOM      2  CB  ARG A  31      11.014  -8.980 -21.059  1.00  0.00    +0.038 C 
BRANCH   2   3
ATOM      3  CG  ARG A  31      12.211  -8.070 -21.015  1.00  0.00    +0.040 C 
BRANCH   3   4
ATOM      4  CD  ARG A  31      12.869  -8.045 -22.385  1.00  0.00    +0.197 C 
BRANCH   4   5
ATOM      5  NE  ARG A  31      14.122  -7.293 -22.375  1.00  0.00    -0.278 N 
ATOM      6  HE  ARG A  31      14.937  -7.739 -21.929  1.00  0.00    +0.260 HD
ATOM      7  CZ  ARG A  31      14.298  -6.081 -22.893  1.00  0.00    +0.339 C 
ATOM      8  NH1 ARG A  31      15.496  -5.521 -22.828  1.00  0.00    -0.290 N 
ATOM      9  NH2 ARG A  31      13.293  -5.427 -23.482  1.00  0.00    -0.290 N 
ATOM     10 HH12 ARG A  31      15.648  -4.582 -23.225  1.00  0.00    +0.256 HD
ATOM     11 HH11 ARG A  31      16.276  -6.023 -22.380  1.00  0.00    +0.256 HD
ATOM     12 HH22 ARG A  31      13.450  -4.490 -23.877  1.00  0.00    +0.256 HD
ATOM     13 HH21 ARG A  31      12.361  -5.861 -23.541  1.00  0.00    +0.256 HD
ENDBRANCH   4   5
ENDBRANCH   3   4
ENDBRANCH   2   3
ENDBRANCH   1   2
END_RES ARG A 31
BEGIN_RES GLU A 35
REMARK INDEX MAP 3 1 15 2 18 3 21 4 22 5 23 6
ROOT
ATOM     14  CA  GLU A  35       5.463  -7.330 -17.223  1.00  0.00    +0.171 C 
ENDROOT
BRANCH  14  15
ATOM     15  CB  GLU A  35       5.139  -7.479 -18.714  1.00  0.00    +0.041 C 
BRANCH  15  16
ATOM     16  CG  GLU A  35       5.134  -6.129 -19.418  1.00  0.00    +0.055 C 
BRANCH  16  17
ATOM     17  CD  GLU A  35       3.773  -5.666 -19.860  1.00  0.00    +0.041 C 
ATOM     18  OE1 GLU A  35       3.638  -5.168 -20.996  1.00  0.00    -0.548 OA
ATOM     19  OE2 GLU A  35       2.831  -5.773 -19.041  1.00  0.00    -0.549 OA
ENDBRANCH  16  17
ENDBRANCH  15  16
ENDBRANCH  14  15
END_RES GLU A 35
ENDMDL
MODEL 7
REMARK VINA RESULT:    -8.828      4.467      8.270
REMARK INTER + INTRA:         -18.801
REMARK INTER:                 -13.719
REMARK INTRA:                  -5.082
REMARK UNBOUND:                -5.329
REMARK  Name = 126941
REMARK  10 active torsions:
REMARK  status: ('A' for Active; 'I' for Inactive)
REMARK    1  A    between atoms: N_6  and  C_16
REMARK    2  A    between atoms: N_6  and  C_18
REMARK    3  A    between atoms: N_6  and  C_27
REMARK    4  A    between atoms: N_7  and  CA_14
REMARK    5  A    between atoms: CA_14  and  CB_15
REMARK    6  A    between atoms: CA_14  and  C_23
REMARK    7  A    between atoms: CB_15  and  CG_17
REMARK    8  A    between atoms: CG_17  and  CD_28
REMARK    9  A    between atoms: C_18  and  C_26
REMARK   10  A    between atoms: C_19  and  C_20
REMARK                            x       y       z     vdW  Elec       q    Type
REMARK                         _______ _______ _______ _____ _____    ______ ____
ROOT
ATOM      1  N   UNL     1      13.603  -5.246 -22.853  1.00  0.00    -0.327 N 
ATOM      2  C   UNL     1      12.255  -5.143 -23.374  1.00  0.00    +0.001 C 
ENDROOT
BRANCH   1   3
ATOM      3  C   UNL     1      13.989  -4.500 -21.720  1.00  0.00    +0.030 A 
ATOM      4  C   UNL     1      14.751  -3.024 -19.479  1.00  0.00    +0.037 A 
ATOM      5  C   UNL     1      13.834  -3.114 -21.713  1.00  0.00    -0.040 A 
ATOM      6  C   UNL     1      14.526  -5.148 -20.607  1.00  0.00    -0.040 A 
ATOM      7  C   UNL     1      14.215  -2.375 -20.592  1.00  0.00    -0.048 A 
ATOM      8  C   UNL     1      14.907  -4.410 -19.488  1.00  0.00    -0.048 A 
BRANCH   4  11
ATOM      9  O   UNL     1      14.491  -1.260 -17.957  1.00  0.00    -0.270 OA
ATOM     10  N   UNL     1      16.276  -2.699 -17.605  1.00  0.00    -0.298 N 
ATOM     11  C   ACE A   0      15.157  -2.237 -18.285  1.00  0.00    +0.245 C 
ATOM     12  H   UNL     1      16.743  -3.494 -17.947  1.00  0.00    +0.000 HD
BRANCH  10  13
ATOM     13  CA  UNL     1      16.777  -2.058 -16.416  1.00  0.00    +0.121 C 
BRANCH  13  16
ATOM     14  O   UNL     1      18.435  -1.569 -18.056  1.00  0.00    -0.479 OA
ATOM     15  OXT UNL     1      18.559  -0.428 -16.098  1.00  0.00    -0.249 OA
ATOM     16  C   UNL     1      17.997  -1.250 -16.810  1.00  0.00    +0.325 C 
ENDBRANCH  13  16
BRANCH  13  17
ATOM     17  CB  UNL     1      17.034  -3.048 -15.273  1.00  0.00    -0.014 C 
BRANCH  17  18
ATOM     18  CG  UNL     1      16.143  -4.296 -15.257  1.00  0.00    +0.047 C 
BRANCH  18  21
ATOM     19  OE1 UNL     1      17.265  -5.698 -13.699  1.00  0.00    -0.481 OA
ATOM     20  OE2 UNL     1      15.204  -4.958 -13.108  1.00  0.00    -0.251 OA
ATOM     21  CD  UNL     1      16.116  -5.009 -13.921  1.00  0.00    +0.305 C 
ENDBRANCH  18  21
ENDBRANCH  17  18
ENDBRANCH  13  17
ENDBRANCH  10  13
ENDBRANCH   4  11
ENDBRANCH   1   3
BRANCH   1  22
ATOM     22  C   UNL     1      14.554  -6.114 -23.520  1.00  0.00    +0.056 C 
BRANCH  22  29
ATOM     23  N   UNL     1      16.919  -5.621 -23.851  1.00  0.00    -0.242 NA
ATOM     24  N   UNL     1      16.338  -3.544 -25.585  1.00  0.00    -0.232 NA
ATOM     25  N   UNL     1      18.599  -3.123 -25.861  1.00  0.00    -0.193 NA
ATOM     26  N   UNL     1      20.246  -4.440 -24.720  1.00  0.00    -0.198 NA
ATOM     27  N   UNL     1      19.558  -6.193 -23.293  1.00  0.00    -0.341 N 
ATOM     28  N   UNL     1      20.889  -2.693 -26.141  1.00  0.00    -0.327 N 
ATOM     29  C   UNL     1      15.651  -5.304 -24.153  1.00  0.00    +0.077 A 
ATOM     30  C   UNL     1      15.365  -4.277 -25.011  1.00  0.00    +0.053 A 
ATOM     31  C   UNL     1      17.891  -4.888 -24.425  1.00  0.00    +0.148 A 
ATOM     32  C   UNL     1      17.613  -3.837 -25.302  1.00  0.00    +0.185 A 
ATOM     33  C   UNL     1      19.228  -5.134 -24.179  1.00  0.00    +0.149 A 
ATOM     34  C   UNL     1      19.863  -3.458 -25.543  1.00  0.00    +0.216 A 
ATOM     35  H   UNL     1      20.502  -6.395 -23.097  1.00  0.00    +0.000 HD
ATOM     36  H   UNL     1      18.843  -6.726 -22.876  1.00  0.00    +0.000 HD
ATOM     37  H   UNL     1      20.660  -1.959 -26.756  1.00  0.00    +0.000 HD
ATOM     38  H   UNL     1      21.831  -2.895 -25.944  1.00  0.00    +0.000 HD
ENDBRANCH  22  29
ENDBRANCH   1  22
TORSDOF 9
BEGIN_RES ARG A 31
REMARK INDEX MAP 3 1 15 2 18 3 21 4 24 5 25 6 26 7 27 8 28 9 29 10 30 11 31 12
REMARK INDEX MAP 32 13
ROOT
ATOM      1  CA  ARG A  31      10.676  -9.621 -19.720  1.00  0.00    +0.171 C 
ENDROOT
BRANCH   1   2
ATOM      2  CB  ARG A  31      11.014  -8.980 -21.059  1.00  0.00    +0.038 C 
BRANCH   2   3
ATOM      3  CG  ARG A  31      11.936  -7.796 -20.953  1.00  0.00    +0.040 C 
BRANCH   3   4
ATOM      4  CD  ARG A  31      11.412  -6.849 -19.886  1.00  0.00    +0.197 C 
BRANCH   4   5
ATOM      5  NE  ARG A  31      10.192  -6.168 -20.312  1.00  0.00    -0.278 N 
ATOM      6  HE  ARG A  31       9.431  -6.753 -20.686  1.00  0.00    +0.260 HD
ATOM      7  CZ  ARG A  31       9.982  -4.856 -20.258  1.00  0.00    +0.339 C 
ATOM      8  NH1 ARG A  31       8.818  -4.373 -20.664  1.00  0.00    -0.290 N 
ATOM      9  NH2 ARG A  31      10.919  -4.024 -19.795  1.00  0.00    -0.290 N 
ATOM     10 HH12 ARG A  31       8.641  -3.359 -20.628  1.00  0.00    +0.256 HD
ATOM     11 HH11 ARG A  31       8.090  -5.011 -21.016  1.00  0.00    +0.256 HD
ATOM     12 HH22 ARG A  31      10.736  -3.011 -19.761  1.00  0.00    +0.256 HD
ATOM     13 HH21 ARG A  31      11.823  -4.395 -19.472  1.00  0.00    +0.256 HD
ENDBRANCH   4   5
ENDBRANCH   3   4
ENDBRANCH   2   3
ENDBRANCH   1   2
END_RES ARG A 31
BEGIN_RES GLU A 35
REMARK INDEX MAP 3 1 15 2 18 3 21 4 22 5 23 6
ROOT
ATOM     14  CA  GLU A  35       5.463  -7.330 -17.223  1.00  0.00    +0.171 C 
ENDROOT
BRANCH  14  15
ATOM     15  CB  GLU A  35       5.139  -7.479 -18.714  1.00  0.00    +0.041 C 
BRANCH  15  16
ATOM     16  CG  GLU A  35       5.999  -6.553 -19.564  1.00  0.00    +0.055 C 
BRANCH  16  17
ATOM     17  CD  GLU A  35       5.293  -5.313 -20.037  1.00  0.00    +0.041 C 
ATOM     18  OE1 GLU A  35       4.108  -5.396 -20.421  1.00  0.00    -0.548 OA
ATOM     19  OE2 GLU A  35       5.947  -4.245 -20.057  1.00  0.00    -0.549 OA
ENDBRANCH  16  17
ENDBRANCH  15  16
ENDBRANCH  14  15
END_RES GLU A 35
ENDMDL
MODEL 8
REMARK VINA RESULT:    -8.618      2.152      3.838
REMARK INTER + INTRA:         -18.482
REMARK INTER:                 -13.784
REMARK INTRA:                  -4.698
REMARK UNBOUND:                -5.329
REMARK  Name = 126941
REMARK  10 active torsions:
REMARK  status: ('A' for Active; 'I' for Inactive)
REMARK    1  A    between atoms: N_6  and  C_16
REMARK    2  A    between atoms: N_6  and  C_18
REMARK    3  A    between atoms: N_6  and  C_27
REMARK    4  A    between atoms: N_7  and  CA_14
REMARK    5  A    between atoms: CA_14  and  CB_15
REMARK    6  A    between atoms: CA_14  and  C_23
REMARK    7  A    between atoms: CB_15  and  CG_17
REMARK    8  A    between atoms: CG_17  and  CD_28
REMARK    9  A    between atoms: C_18  and  C_26
REMARK   10  A    between atoms: C_19  and  C_20
REMARK                            x       y       z     vdW  Elec       q    Type
REMARK                         _______ _______ _______ _____ _____    ______ ____
ROOT
ATOM      1  N   UNL     1      13.209  -2.531 -18.453  1.00  0.00    -0.327 N 
ATOM      2  C   UNL     1      12.825  -1.992 -17.164  1.00  0.00    +0.001 C 
ENDROOT
BRANCH   1   3
ATOM      3  C   UNL     1      12.231  -3.029 -19.339  1.00  0.00    +0.030 A 
ATOM      4  C   UNL     1      10.297  -4.015 -21.091  1.00  0.00    +0.037 A 
ATOM      5  C   UNL     1      12.618  -3.713 -20.492  1.00  0.00    -0.040 A 
ATOM      6  C   UNL     1      10.877  -2.837 -19.064  1.00  0.00    -0.040 A 
ATOM      7  C   UNL     1      11.651  -4.207 -21.368  1.00  0.00    -0.048 A 
ATOM      8  C   UNL     1       9.911  -3.330 -19.939  1.00  0.00    -0.048 A 
BRANCH   4  11
ATOM      9  O   UNL     1       8.371  -3.794 -22.411  1.00  0.00    -0.270 OA
ATOM     10  N   UNL     1       9.417  -5.865 -22.413  1.00  0.00    -0.298 N 
ATOM     11  C   ACE A   0       9.267  -4.541 -22.025  1.00  0.00    +0.245 C 
ATOM     12  H   UNL     1      10.170  -6.382 -22.048  1.00  0.00    +0.000 HD
BRANCH  10  13
ATOM     13  CA  UNL     1       8.514  -6.510 -23.332  1.00  0.00    +0.121 C 
BRANCH  13  16
ATOM     14  O   UNL     1       9.300  -8.723 -22.932  1.00  0.00    -0.479 OA
ATOM     15  OXT UNL     1       7.161  -8.267 -22.326  1.00  0.00    -0.249 OA
ATOM     16  C   UNL     1       8.229  -7.898 -22.797  1.00  0.00    +0.325 C 
ENDBRANCH  13  16
BRANCH  13  17
ATOM     17  CB  UNL     1       9.029  -6.498 -24.777  1.00  0.00    -0.014 C 
BRANCH  17  18
ATOM     18  CG  UNL     1      10.506  -6.122 -24.956  1.00  0.00    +0.047 C 
BRANCH  18  21
ATOM     19  OE1 UNL     1       9.691  -4.920 -26.839  1.00  0.00    -0.481 OA
ATOM     20  OE2 UNL     1      11.915  -5.364 -26.794  1.00  0.00    -0.251 OA
ATOM     21  CD  UNL     1      10.808  -5.456 -26.282  1.00  0.00    +0.305 C 
ENDBRANCH  18  21
ENDBRANCH  17  18
ENDBRANCH  13  17
ENDBRANCH  10  13
ENDBRANCH   4  11
ENDBRANCH   1   3
BRANCH   1  22
ATOM     22  C   UNL     1      14.612  -2.566 -18.814  1.00  0.00    +0.056 C 
BRANCH  22  29
ATOM     23  N   UNL     1      15.179  -3.823 -16.803  1.00  0.00    -0.242 NA
ATOM     24  N   UNL     1      17.270  -2.110 -16.210  1.00  0.00    -0.232 NA
ATOM     25  N   UNL     1      17.762  -3.342 -14.312  1.00  0.00    -0.193 NA
ATOM     26  N   UNL     1      16.472  -5.278 -13.731  1.00  0.00    -0.198 NA
ATOM     27  N   UNL     1      14.673  -5.942 -15.113  1.00  0.00    -0.341 N 
ATOM     28  N   UNL     1      18.262  -4.589 -12.388  1.00  0.00    -0.327 N 
ATOM     29  C   UNL     1      15.465  -2.778 -17.593  1.00  0.00    +0.077 A 
ATOM     30  C   UNL     1      16.499  -1.931 -17.300  1.00  0.00    +0.053 A 
ATOM     31  C   UNL     1      15.951  -4.001 -15.714  1.00  0.00    +0.148 A 
ATOM     32  C   UNL     1      17.009  -3.143 -15.402  1.00  0.00    +0.185 A 
ATOM     33  C   UNL     1      15.739  -5.046 -14.835  1.00  0.00    +0.149 A 
ATOM     34  C   UNL     1      17.458  -4.396 -13.533  1.00  0.00    +0.216 A 
ATOM     35  H   UNL     1      14.496  -6.698 -14.507  1.00  0.00    +0.000 HD
ATOM     36  H   UNL     1      14.112  -5.808 -15.911  1.00  0.00    +0.000 HD
ATOM     37  H   UNL     1      19.001  -3.968 -12.196  1.00  0.00    +0.000 HD
ATOM     38  H   UNL     1      18.084  -5.344 -11.783  1.00  0.00    +0.000 HD
ENDBRANCH  22  29
ENDBRANCH   1  22
TORSDOF 9
BEGIN_RES ARG A 31
REMARK INDEX MAP 3 1 15 2 18 3 21 4 24 5 25 6 26 7 27 8 28 9 29 10 30 11 31 12
REMARK INDEX MAP 32 13
ROOT
ATOM      1  CA  ARG A  31      10.676  -9.621 -19.720  1.00  0.00    +0.171 C 
ENDROOT
BRANCH   1   2
ATOM      2  CB  ARG A  31      11.014  -8.980 -21.059  1.00  0.00    +0.038 C 
BRANCH   2   3
ATOM      3  CG  ARG A  31      12.099  -7.942 -20.982  1.00  0.00    +0.040 C 
BRANCH   3   4
ATOM      4  CD  ARG A  31      12.215  -7.447 -19.549  1.00  0.00    +0.197 C 
BRANCH   4   5
ATOM      5  NE  ARG A  31      13.349  -8.051 -18.853  1.00  0.00    -0.278 N 
ATOM      6  HE  ARG A  31      13.303  -9.063 -18.665  1.00  0.00    +0.260 HD
ATOM      7  CZ  ARG A  31      14.436  -7.404 -18.442  1.00  0.00    +0.339 C 
ATOM      8  NH1 ARG A  31      15.399  -8.082 -17.836  1.00  0.00    -0.290 N 
ATOM      9  NH2 ARG A  31      14.574  -6.090 -18.637  1.00  0.00    -0.290 N 
ATOM     10 HH12 ARG A  31      16.246  -7.595 -17.512  1.00  0.00    +0.256 HD
ATOM     11 HH11 ARG A  31      15.300  -9.098 -17.689  1.00  0.00    +0.256 HD
ATOM     12 HH22 ARG A  31      15.423  -5.608 -18.311  1.00  0.00    +0.256 HD
ATOM     13 HH21 ARG A  31      13.831  -5.559 -19.113  1.00  0.00    +0.256 HD
ENDBRANCH   4   5
ENDBRANCH   3   4
ENDBRANCH   2   3
ENDBRANCH   1   2
END_RES ARG A 31
BEGIN_RES GLU A 35
REMARK INDEX MAP 3 1 15 2 18 3 21 4 22 5 23 6
ROOT
ATOM     14  CA  GLU A  35       5.463  -7.330 -17.223  1.00  0.00    +0.171 C 
ENDROOT
BRANCH  14  15
ATOM     15  CB  GLU A  35       5.139  -7.479 -18.714  1.00  0.00    +0.041 C 
BRANCH  15  16
ATOM     16  CG  GLU A  35       5.009  -6.122 -19.392  1.00  0.00    +0.055 C 
BRANCH  16  17
ATOM     17  CD  GLU A  35       6.321  -5.437 -19.663  1.00  0.00    +0.041 C 
ATOM     18  OE1 GLU A  35       6.365  -4.190 -19.683  1.00  0.00    -0.548 OA
ATOM     19  OE2 GLU A  35       7.315  -6.163 -19.895  1.00  0.00    -0.549 OA
ENDBRANCH  16  17
ENDBRANCH  15  16
ENDBRANCH  14  15
END_RES GLU A 35
ENDMDL
MODEL 9
REMARK VINA RESULT:    -8.503      4.448      8.592
REMARK INTER + INTRA:         -18.306
REMARK INTER:                 -12.698
REMARK INTRA:                  -5.608
REMARK UNBOUND:                -5.329
REMARK  Name = 126941
REMARK  10 active torsions:
REMARK  status: ('A' for Active; 'I' for Inactive)
REMARK    1  A    between atoms: N_6  and  C_16
REMARK    2  A    between atoms: N_6  and  C_18
REMARK    3  A    between atoms: N_6  and  C_27
REMARK    4  A    between atoms: N_7  and  CA_14
REMARK    5  A    between atoms: CA_14  and  CB_15
REMARK    6  A    between atoms: CA_14  and  C_23
REMARK    7  A    between atoms: CB_15  and  CG_17
REMARK    8  A    between atoms: CG_17  and  CD_28
REMARK    9  A    between atoms: C_18  and  C_26
REMARK   10  A    between atoms: C_19  and  C_20
REMARK                            x       y       z     vdW  Elec       q    Type
REMARK                         _______ _______ _______ _____ _____    ______ ____
ROOT
ATOM      1  N   UNL     1      13.246  -5.055 -23.269  1.00  0.00    -0.327 N 
ATOM      2  C   UNL     1      11.870  -5.040 -23.725  1.00  0.00    +0.001 C 
ENDROOT
BRANCH   1   3
ATOM      3  C   UNL     1      13.610  -4.391 -22.079  1.00  0.00    +0.030 A 
ATOM      4  C   UNL     1      14.328  -3.079 -19.724  1.00  0.00    +0.037 A 
ATOM      5  C   UNL     1      12.678  -3.594 -21.413  1.00  0.00    -0.040 A 
ATOM      6  C   UNL     1      14.900  -4.531 -21.568  1.00  0.00    -0.040 A 
ATOM      7  C   UNL     1      13.037  -2.938 -20.234  1.00  0.00    -0.048 A 
ATOM      8  C   UNL     1      15.259  -3.875 -20.392  1.00  0.00    -0.048 A 
BRANCH   4  11
ATOM      9  O   UNL     1      13.883  -1.674 -17.901  1.00  0.00    -0.270 OA
ATOM     10  N   UNL     1      16.004  -2.608 -18.017  1.00  0.00    -0.298 N 
ATOM     11  C   ACE A   0      14.711  -2.380 -18.470  1.00  0.00    +0.245 C 
ATOM     12  H   UNL     1      16.593  -3.193 -18.545  1.00  0.00    +0.000 HD
BRANCH  10  13
ATOM     13  CA  UNL     1      16.513  -2.022 -16.804  1.00  0.00    +0.121 C 
BRANCH  13  16
ATOM     14  O   UNL     1      18.394  -1.905 -18.262  1.00  0.00    -0.479 OA
ATOM     15  OXT UNL     1      18.416  -0.544 -16.446  1.00  0.00    -0.249 OA
ATOM     16  C   UNL     1      17.852  -1.391 -17.127  1.00  0.00    +0.325 C 
ENDBRANCH  13  16
BRANCH  13  17
ATOM     17  CB  UNL     1      16.564  -3.018 -15.639  1.00  0.00    -0.014 C 
BRANCH  17  18
ATOM     18  CG  UNL     1      15.649  -4.242 -15.767  1.00  0.00    +0.047 C 
BRANCH  18  21
ATOM     19  OE1 UNL     1      15.784  -6.517 -15.089  1.00  0.00    -0.481 OA
ATOM     20  OE2 UNL     1      15.951  -4.952 -13.456  1.00  0.00    -0.251 OA
ATOM     21  CD  UNL     1      15.798  -5.237 -14.635  1.00  0.00    +0.305 C 
ENDBRANCH  18  21
ENDBRANCH  17  18
ENDBRANCH  13  17
ENDBRANCH  10  13
ENDBRANCH   4  11
ENDBRANCH   1   3
BRANCH   1  22
ATOM     22  C   UNL     1      14.245  -5.746 -24.059  1.00  0.00    +0.056 C 
BRANCH  22  29
ATOM     23  N   UNL     1      15.623  -3.927 -24.917  1.00  0.00    -0.242 NA
ATOM     24  N   UNL     1      14.648  -4.275 -27.483  1.00  0.00    -0.232 NA
ATOM     25  N   UNL     1      15.979  -2.539 -28.241  1.00  0.00    -0.193 NA
ATOM     26  N   UNL     1      17.421  -1.345 -26.741  1.00  0.00    -0.198 NA
ATOM     27  N   UNL     1      17.486  -1.947 -24.457  1.00  0.00    -0.341 N 
ATOM     28  N   UNL     1      17.328  -0.779 -29.012  1.00  0.00    -0.327 N 
ATOM     29  C   UNL     1      14.715  -4.876 -25.192  1.00  0.00    +0.077 A 
ATOM     30  C   UNL     1      14.234  -5.048 -26.461  1.00  0.00    +0.053 A 
ATOM     31  C   UNL     1      16.036  -3.155 -25.940  1.00  0.00    +0.148 A 
ATOM     32  C   UNL     1      15.552  -3.319 -27.241  1.00  0.00    +0.185 A 
ATOM     33  C   UNL     1      16.967  -2.150 -25.763  1.00  0.00    +0.149 A 
ATOM     34  C   UNL     1      16.890  -1.593 -27.944  1.00  0.00    +0.216 A 
ATOM     35  H   UNL     1      18.152  -1.239 -24.297  1.00  0.00    +0.000 HD
ATOM     36  H   UNL     1      17.180  -2.514 -23.712  1.00  0.00    +0.000 HD
ATOM     37  H   UNL     1      16.968  -0.920 -29.917  1.00  0.00    +0.000 HD
ATOM     38  H   UNL     1      17.992  -0.072 -28.850  1.00  0.00    +0.000 HD
ENDBRANCH  22  29
ENDBRANCH   1  22
TORSDOF 9
BEGIN_RES ARG A 31
REMARK INDEX MAP 3 1 15 2 18 3 21 4 24 5 25 6 26 7 27 8 28 9 29 10 30 11 31 12
REMARK INDEX MAP 32 13
ROOT
ATOM      1  CA  ARG A  31      10.676  -9.621 -19.720  1.00  0.00    +0.171 C 
ENDROOT
BRANCH   1   2
ATOM      2  CB  ARG A  31      11.014  -8.980 -21.059  1.00  0.00    +0.038 C 
BRANCH   2   3
ATOM      3  CG  ARG A  31      11.704  -7.649 -20.941  1.00  0.00    +0.040 C 
BRANCH   3   4
ATOM      4  CD  ARG A  31      13.206  -7.854 -21.051  1.00  0.00    +0.197 C 
BRANCH   4   5
ATOM      5  NE  ARG A  31      13.892  -7.544 -19.799  1.00  0.00    -0.278 N 
ATOM      6  HE  ARG A  31      13.801  -6.584 -19.435  1.00  0.00    +0.260 HD
ATOM      7  CZ  ARG A  31      14.625  -8.397 -19.089  1.00  0.00    +0.339 C 
ATOM      8  NH1 ARG A  31      15.179  -7.985 -17.959  1.00  0.00    -0.290 N 
ATOM      9  NH2 ARG A  31      14.803  -9.659 -19.492  1.00  0.00    -0.290 N 
ATOM     10 HH12 ARG A  31      15.749  -8.634 -17.399  1.00  0.00    +0.256 HD
ATOM     11 HH11 ARG A  31      15.040  -7.015 -17.641  1.00  0.00    +0.256 HD
ATOM     12 HH22 ARG A  31      15.374 -10.303 -18.928  1.00  0.00    +0.256 HD
ATOM     13 HH21 ARG A  31      14.369  -9.986 -20.367  1.00  0.00    +0.256 HD
ENDBRANCH   4   5
ENDBRANCH   3   4
ENDBRANCH   2   3
ENDBRANCH   1   2
END_RES ARG A 31
BEGIN_RES GLU A 35
REMARK INDEX MAP 3 1 15 2 18 3 21 4 22 5 23 6
ROOT
ATOM     14  CA  GLU A  35       5.463  -7.330 -17.223  1.00  0.00    +0.171 C 
ENDROOT
BRANCH  14  15
ATOM     15  CB  GLU A  35       5.139  -7.479 -18.714  1.00  0.00    +0.041 C 
BRANCH  15  16
ATOM     16  CG  GLU A  35       5.015  -6.122 -19.393  1.00  0.00    +0.055 C 
BRANCH  16  17
ATOM     17  CD  GLU A  35       6.330  -5.483 -19.745  1.00  0.00    +0.041 C 
ATOM     18  OE1 GLU A  35       7.209  -6.169 -20.307  1.00  0.00    -0.548 OA
ATOM     19  OE2 GLU A  35       6.497  -4.284 -19.423  1.00  0.00    -0.549 OA
ENDBRANCH  16  17
ENDBRANCH  15  16
ENDBRANCH  14  15
END_RES GLU A 35
ENDMDL
