BEGIN_RES ARG A 31
REMARK INDEX MAP 3 1 15 2 18 3 21 4 24 5 25 6 26 7 27 8 28 9 29 10 30 11 31 12
REMARK INDEX MAP 32 13
ROOT
ATOM      1  CA  ARG A  31      10.676  -9.621 -19.720  1.00  0.00    +0.171 C 
ENDROOT
BRANCH   1   2
ATOM      2  CB  ARG A  31      11.014  -8.980 -21.059  1.00  0.00    +0.038 C 
BRANCH   2   3
ATOM      3  CG  ARG A  31      10.902  -7.480 -21.063  1.00  0.00    +0.040 C 
BRANCH   3   4
ATOM      4  CD  ARG A  31      11.521  -6.937 -22.341  1.00  0.00    +0.197 C 
BRANCH   4   5
ATOM      5  NE  ARG A  31      10.927  -7.538 -23.533  1.00  0.00    -0.278 N 
ATOM      6  HE  ARG A  31       9.950  -7.292 -23.749  1.00  0.00    +0.260 HD
ATOM      7  CZ  ARG A  31      11.542  -8.376 -24.362  1.00  0.00    +0.339 C 
ATOM      8  NH1 ARG A  31      10.887  -8.834 -25.418  1.00  0.00    -0.290 N 
ATOM      9  NH2 ARG A  31      12.806  -8.755 -24.152  1.00  0.00    -0.290 N 
ATOM     10 HH12 ARG A  31      11.350  -9.484 -26.069  1.00  0.00    +0.256 HD
ATOM     11 HH11 ARG A  31       9.914  -8.540 -25.588  1.00  0.00    +0.256 HD
ATOM     12 HH22 ARG A  31      13.264  -9.405 -24.806  1.00  0.00    +0.256 HD
ATOM     13 HH21 ARG A  31      13.322  -8.397 -23.336  1.00  0.00    +0.256 HD
ENDBRANCH   4   5
ENDBRANCH   3   4
ENDBRANCH   2   3
ENDBRANCH   1   2
END_RES ARG A 31
BEGIN_RES GLU A 35
REMARK INDEX MAP 3 1 15 2 18 3 21 4 22 5 23 6
ROOT
ATOM     14  CA  GLU A  35       5.463  -7.330 -17.223  1.00  0.00    +0.171 C 
ENDROOT
BRANCH  14  15
ATOM     15  CB  GLU A  35       5.139  -7.479 -18.714  1.00  0.00    +0.041 C 
BRANCH  15  16
ATOM     16  CG  GLU A  35       3.892  -6.691 -19.092  1.00  0.00    +0.055 C 
BRANCH  16  17
ATOM     17  CD  GLU A  35       3.439  -6.893 -20.512  1.00  0.00    +0.041 C 
ATOM     18  OE1 GLU A  35       4.136  -7.586 -21.281  1.00  0.00    -0.548 OA
ATOM     19  OE2 GLU A  35       2.385  -6.319 -20.871  1.00  0.00    -0.549 OA
ENDBRANCH  16  17
ENDBRANCH  15  16
ENDBRANCH  14  15
END_RES GLU A 35
