MODEL 1
REMARK VINA RESULT:    -8.975      0.000      0.000
REMARK INTER + INTRA:         -15.022
REMARK INTER:                 -13.697
REMARK INTRA:                  -1.325
REMARK UNBOUND:                -1.325
REMARK  Name = 126941
REMARK  10 active torsions:
REMARK  status: ('A' for Active; 'I' for Inactive)
REMARK    1  A    between atoms: N_6  and  C_16
REMARK    2  A    between atoms: N_6  and  C_18
REMARK    3  A    between atoms: N_6  and  C_27
REMARK    4  A    between atoms: N_7  and  CA_14
REMARK    5  A    between atoms: CA_14  and  CB_15
REMARK    6  A    between atoms: CA_14  and  C_23
REMARK    7  A    between atoms: CB_15  and  CG_17
REMARK    8  A    between atoms: CG_17  and  CD_28
REMARK    9  A    between atoms: C_18  and  C_26
REMARK   10  A    between atoms: C_19  and  C_20
REMARK                            x       y       z     vdW  Elec       q    Type
REMARK                         _______ _______ _______ _____ _____    ______ ____
ROOT
ATOM      1  N   UNL     1       0.253  10.510  -1.340  1.00  0.00    -0.327 N 
ATOM      2  C   UNL     1      -0.319   9.187  -1.199  1.00  0.00    +0.001 C 
ENDROOT
BRANCH   1   3
ATOM      3  C   UNL     1      -0.472  11.649  -0.931  1.00  0.00    +0.030 A 
ATOM      4  C   UNL     1      -1.907  13.901  -0.125  1.00  0.00    +0.037 A 
ATOM      5  C   UNL     1      -0.195  12.892  -1.501  1.00  0.00    -0.040 A 
ATOM      6  C   UNL     1      -1.465  11.532   0.041  1.00  0.00    -0.040 A 
ATOM      7  C   UNL     1      -0.913  14.019  -1.097  1.00  0.00    -0.048 A 
ATOM      8  C   UNL     1      -2.182  12.658   0.444  1.00  0.00    -0.048 A 
BRANCH   4  11
ATOM      9  O   UNL     1      -3.641  15.463  -0.358  1.00  0.00    -0.270 OA
ATOM     10  N   UNL     1      -2.229  15.721   1.465  1.00  0.00    -0.298 N 
ATOM     11  C   ACE A   0      -2.671  15.101   0.304  1.00  0.00    +0.245 C 
ATOM     12  H   UNL     1      -1.440  15.354   1.925  1.00  0.00    +0.000 HD
BRANCH  10  13
ATOM     13  CA  UNL     1      -2.880  16.879   2.021  1.00  0.00    +0.121 C 
BRANCH  13  16
ATOM     14  O   UNL     1      -2.000  18.966   1.281  1.00  0.00    -0.479 OA
ATOM     15  OXT UNL     1      -0.916  17.943   2.992  1.00  0.00    -0.249 OA
ATOM     16  C   UNL     1      -1.833  17.962   2.181  1.00  0.00    +0.325 C 
ENDBRANCH  13  16
BRANCH  13  17
ATOM     17  CB  UNL     1      -3.648  16.565   3.312  1.00  0.00    -0.014 C 
BRANCH  17  18
ATOM     18  CG  UNL     1      -5.042  15.954   3.128  1.00  0.00    +0.047 C 
BRANCH  18  21
ATOM     19  OE1 UNL     1      -3.887  13.905   3.467  1.00  0.00    -0.481 OA
ATOM     20  OE2 UNL     1      -6.132  13.877   3.788  1.00  0.00    -0.251 OA
ATOM     21  CD  UNL     1      -5.115  14.484   3.484  1.00  0.00    +0.305 C 
ENDBRANCH  18  21
ENDBRANCH  17  18
ENDBRANCH  13  17
ENDBRANCH  10  13
ENDBRANCH   4  11
ENDBRANCH   1   3
BRANCH   1  22
ATOM     22  C   UNL     1       1.574  10.650  -1.921  1.00  0.00    +0.056 C 
BRANCH  22  29
ATOM     23  N   UNL     1       3.053   9.509  -0.353  1.00  0.00    -0.242 NA
ATOM     24  N   UNL     1       4.061  11.910   0.586  1.00  0.00    -0.232 NA
ATOM     25  N   UNL     1       5.444  10.773   2.054  1.00  0.00    -0.193 NA
ATOM     26  N   UNL     1       5.438   8.376   2.147  1.00  0.00    -0.198 NA
ATOM     27  N   UNL     1       4.004   7.155   0.721  1.00  0.00    -0.341 N 
ATOM     28  N   UNL     1       6.845   9.622   3.543  1.00  0.00    -0.327 N 
ATOM     29  C   UNL     1       2.622  10.682  -0.843  1.00  0.00    +0.077 A 
ATOM     30  C   UNL     1       3.121  11.868  -0.379  1.00  0.00    +0.053 A 
ATOM     31  C   UNL     1       3.992   9.553   0.611  1.00  0.00    +0.148 A 
ATOM     32  C   UNL     1       4.510  10.757   1.095  1.00  0.00    +0.185 A 
ATOM     33  C   UNL     1       4.501   8.402   1.182  1.00  0.00    +0.149 A 
ATOM     34  C   UNL     1       5.861   9.586   2.532  1.00  0.00    +0.216 A 
ATOM     35  H   UNL     1       4.346   6.316   1.107  1.00  0.00    +0.000 HD
ATOM     36  H   UNL     1       3.317   7.129   0.016  1.00  0.00    +0.000 HD
ATOM     37  H   UNL     1       7.191  10.487   3.863  1.00  0.00    +0.000 HD
ATOM     38  H   UNL     1       7.187   8.783   3.929  1.00  0.00    +0.000 HD
ENDBRANCH  22  29
ENDBRANCH   1  22
TORSDOF 9
ENDMDL
MODEL 2
REMARK VINA RESULT:    -8.825      1.924      3.441
REMARK INTER + INTRA:         -14.793
REMARK INTER:                 -13.757
REMARK INTRA:                  -1.036
REMARK UNBOUND:                -1.325
REMARK  Name = 126941
REMARK  10 active torsions:
REMARK  status: ('A' for Active; 'I' for Inactive)
REMARK    1  A    between atoms: N_6  and  C_16
REMARK    2  A    between atoms: N_6  and  C_18
REMARK    3  A    between atoms: N_6  and  C_27
REMARK    4  A    between atoms: N_7  and  CA_14
REMARK    5  A    between atoms: CA_14  and  CB_15
REMARK    6  A    between atoms: CA_14  and  C_23
REMARK    7  A    between atoms: CB_15  and  CG_17
REMARK    8  A    between atoms: CG_17  and  CD_28
REMARK    9  A    between atoms: C_18  and  C_26
REMARK   10  A    between atoms: C_19  and  C_20
REMARK                            x       y       z     vdW  Elec       q    Type
REMARK                         _______ _______ _______ _____ _____    ______ ____
ROOT
ATOM      1  N   UNL     1       0.534   9.980  -0.683  1.00  0.00    -0.327 N 
ATOM      2  C   UNL     1      -0.346   8.842  -0.502  1.00  0.00    +0.001 C 
ENDROOT
BRANCH   1   3
ATOM      3  C   UNL     1       0.163  11.252  -0.200  1.00  0.00    +0.030 A 
ATOM      4  C   UNL     1      -0.571  13.769   0.755  1.00  0.00    +0.037 A 
ATOM      5  C   UNL     1      -0.422  12.181  -1.061  1.00  0.00    -0.040 A 
ATOM      6  C   UNL     1       0.382  11.582   1.138  1.00  0.00    -0.040 A 
ATOM      7  C   UNL     1      -0.789  13.440  -0.584  1.00  0.00    -0.048 A 
ATOM      8  C   UNL     1       0.015  12.840   1.615  1.00  0.00    -0.048 A 
BRANCH   4  11
ATOM      9  O   UNL     1      -0.328  15.608   2.189  1.00  0.00    -0.270 OA
ATOM     10  N   UNL     1      -2.030  15.717   0.616  1.00  0.00    -0.298 N 
ATOM     11  C   ACE A   0      -0.962  15.109   1.263  1.00  0.00    +0.245 C 
ATOM     12  H   UNL     1      -2.474  15.235  -0.118  1.00  0.00    +0.000 HD
BRANCH  10  13
ATOM     13  CA  UNL     1      -2.510  17.026   0.977  1.00  0.00    +0.121 C 
BRANCH  13  16
ATOM     14  O   UNL     1      -3.074  17.184   3.287  1.00  0.00    -0.479 OA
ATOM     15  OXT UNL     1      -4.688  16.423   1.886  1.00  0.00    -0.249 OA
ATOM     16  C   UNL     1      -3.554  16.849   2.061  1.00  0.00    +0.325 C 
ENDBRANCH  13  16
BRANCH  13  17
ATOM     17  CB  UNL     1      -3.004  17.831  -0.231  1.00  0.00    -0.014 C 
BRANCH  17  18
ATOM     18  CG  UNL     1      -2.854  17.147  -1.596  1.00  0.00    +0.047 C 
BRANCH  18  21
ATOM     19  OE1 UNL     1      -5.025  17.102  -2.562  1.00  0.00    -0.481 OA
ATOM     20  OE2 UNL     1      -3.532  18.546  -3.472  1.00  0.00    -0.251 OA
ATOM     21  CD  UNL     1      -3.799  17.679  -2.652  1.00  0.00    +0.305 C 
ENDBRANCH  18  21
ENDBRANCH  17  18
ENDBRANCH  13  17
ENDBRANCH  10  13
ENDBRANCH   4  11
ENDBRANCH   1   3
BRANCH   1  22
ATOM     22  C   UNL     1       1.791   9.797  -1.379  1.00  0.00    +0.056 C 
BRANCH  22  29
ATOM     23  N   UNL     1       3.579   9.930   0.274  1.00  0.00    -0.242 NA
ATOM     24  N   UNL     1       3.819   7.175   0.371  1.00  0.00    -0.232 NA
ATOM     25  N   UNL     1       5.512   7.362   1.940  1.00  0.00    -0.193 NA
ATOM     26  N   UNL     1       6.244   9.511   2.712  1.00  0.00    -0.198 NA
ATOM     27  N   UNL     1       5.226  11.467   1.863  1.00  0.00    -0.341 N 
ATOM     28  N   UNL     1       7.228   7.550   3.530  1.00  0.00    -0.327 N 
ATOM     29  C   UNL     1       2.801   9.138  -0.480  1.00  0.00    +0.077 A 
ATOM     30  C   UNL     1       2.919   7.776  -0.431  1.00  0.00    +0.053 A 
ATOM     31  C   UNL     1       4.477   9.327   1.076  1.00  0.00    +0.148 A 
ATOM     32  C   UNL     1       4.611   7.938   1.134  1.00  0.00    +0.185 A 
ATOM     33  C   UNL     1       5.326  10.052   1.890  1.00  0.00    +0.149 A 
ATOM     34  C   UNL     1       6.282   8.174   2.687  1.00  0.00    +0.216 A 
ATOM     35  H   UNL     1       5.816  12.013   2.432  1.00  0.00    +0.000 HD
ATOM     36  H   UNL     1       4.567  11.903   1.275  1.00  0.00    +0.000 HD
ATOM     37  H   UNL     1       7.297   6.568   3.549  1.00  0.00    +0.000 HD
ATOM     38  H   UNL     1       7.817   8.097   4.098  1.00  0.00    +0.000 HD
ENDBRANCH  22  29
ENDBRANCH   1  22
TORSDOF 9
ENDMDL
MODEL 3
REMARK VINA RESULT:    -8.819      4.376      9.737
REMARK INTER + INTRA:         -14.785
REMARK INTER:                 -13.621
REMARK INTRA:                  -1.164
REMARK UNBOUND:                -1.325
REMARK  Name = 126941
REMARK  10 active torsions:
REMARK  status: ('A' for Active; 'I' for Inactive)
REMARK    1  A    between atoms: N_6  and  C_16
REMARK    2  A    between atoms: N_6  and  C_18
REMARK    3  A    between atoms: N_6  and  C_27
REMARK    4  A    between atoms: N_7  and  CA_14
REMARK    5  A    between atoms: CA_14  and  CB_15
REMARK    6  A    between atoms: CA_14  and  C_23
REMARK    7  A    between atoms: CB_15  and  CG_17
REMARK    8  A    between atoms: CG_17  and  CD_28
REMARK    9  A    between atoms: C_18  and  C_26
REMARK   10  A    between atoms: C_19  and  C_20
REMARK                            x       y       z     vdW  Elec       q    Type
REMARK                         _______ _______ _______ _____ _____    ______ ____
ROOT
ATOM      1  N   UNL     1      -2.787  16.088   2.750  1.00  0.00    -0.327 N 
ATOM      2  C   UNL     1      -2.235  17.016   3.717  1.00  0.00    +0.001 C 
ENDROOT
BRANCH   1   3
ATOM      3  C   UNL     1      -2.078  14.923   2.393  1.00  0.00    +0.030 A 
ATOM      4  C   UNL     1      -0.672  12.619   1.687  1.00  0.00    +0.037 A 
ATOM      5  C   UNL     1      -0.779  15.025   1.891  1.00  0.00    -0.040 A 
ATOM      6  C   UNL     1      -2.673  13.670   2.540  1.00  0.00    -0.040 A 
ATOM      7  C   UNL     1      -0.076  13.872   1.539  1.00  0.00    -0.048 A 
ATOM      8  C   UNL     1      -1.970  12.519   2.187  1.00  0.00    -0.048 A 
BRANCH   4  11
ATOM      9  O   UNL     1      -0.410  10.292   1.561  1.00  0.00    -0.270 OA
ATOM     10  N   UNL     1       1.291  11.593   0.668  1.00  0.00    -0.298 N 
ATOM     11  C   ACE A   0       0.077  11.391   1.311  1.00  0.00    +0.245 C 
ATOM     12  H   UNL     1       1.596  12.515   0.512  1.00  0.00    +0.000 HD
BRANCH  10  13
ATOM     13  CA  UNL     1       2.120  10.503   0.220  1.00  0.00    +0.121 C 
BRANCH  13  16
ATOM     14  O   UNL     1       3.504  12.422  -0.060  1.00  0.00    -0.479 OA
ATOM     15  OXT UNL     1       4.494  10.396  -0.315  1.00  0.00    -0.249 OA
ATOM     16  C   UNL     1       3.497  11.064  -0.068  1.00  0.00    +0.325 C 
ENDBRANCH  13  16
BRANCH  13  17
ATOM     17  CB  UNL     1       1.506   9.736  -0.957  1.00  0.00    -0.014 C 
BRANCH  17  18
ATOM     18  CG  UNL     1       1.388  10.514  -2.273  1.00  0.00    +0.047 C 
BRANCH  18  21
ATOM     19  OE1 UNL     1       1.824  10.379  -4.606  1.00  0.00    -0.481 OA
ATOM     20  OE2 UNL     1       3.245   9.263  -3.235  1.00  0.00    -0.251 OA
ATOM     21  CD  UNL     1       2.255   9.964  -3.387  1.00  0.00    +0.305 C 
ENDBRANCH  18  21
ENDBRANCH  17  18
ENDBRANCH  13  17
ENDBRANCH  10  13
ENDBRANCH   4  11
ENDBRANCH   1   3
BRANCH   1  22
ATOM     22  C   UNL     1      -4.071  16.381   2.144  1.00  0.00    +0.056 C 
BRANCH  22  29
ATOM     23  N   UNL     1      -3.365  17.969   0.432  1.00  0.00    -0.242 NA
ATOM     24  N   UNL     1      -4.113  16.249  -1.602  1.00  0.00    -0.232 NA
ATOM     25  N   UNL     1      -3.425  17.795  -3.183  1.00  0.00    -0.193 NA
ATOM     26  N   UNL     1      -2.500  19.906  -2.521  1.00  0.00    -0.198 NA
ATOM     27  N   UNL     1      -2.284  20.419  -0.224  1.00  0.00    -0.341 N 
ATOM     28  N   UNL     1      -2.730  19.361  -4.786  1.00  0.00    -0.327 N 
ATOM     29  C   UNL     1      -3.896  16.767   0.700  1.00  0.00    +0.077 A 
ATOM     30  C   UNL     1      -4.265  15.916  -0.306  1.00  0.00    +0.053 A 
ATOM     31  C   UNL     1      -3.213  18.300  -0.864  1.00  0.00    +0.148 A 
ATOM     32  C   UNL     1      -3.587  17.443  -1.901  1.00  0.00    +0.185 A 
ATOM     33  C   UNL     1      -2.677  19.515  -1.245  1.00  0.00    +0.149 A 
ATOM     34  C   UNL     1      -2.891  19.006  -3.429  1.00  0.00    +0.216 A 
ATOM     35  H   UNL     1      -1.898  21.293  -0.462  1.00  0.00    +0.000 HD
ATOM     36  H   UNL     1      -2.397  20.172   0.722  1.00  0.00    +0.000 HD
ATOM     37  H   UNL     1      -3.002  18.734  -5.495  1.00  0.00    +0.000 HD
ATOM     38  H   UNL     1      -2.344  20.235  -5.024  1.00  0.00    +0.000 HD
ENDBRANCH  22  29
ENDBRANCH   1  22
TORSDOF 9
ENDMDL
MODEL 4
REMARK VINA RESULT:    -8.759      1.644      2.594
REMARK INTER + INTRA:         -14.693
REMARK INTER:                 -13.469
REMARK INTRA:                  -1.224
REMARK UNBOUND:                -1.325
REMARK  Name = 126941
REMARK  10 active torsions:
REMARK  status: ('A' for Active; 'I' for Inactive)
REMARK    1  A    between atoms: N_6  and  C_16
REMARK    2  A    between atoms: N_6  and  C_18
REMARK    3  A    between atoms: N_6  and  C_27
REMARK    4  A    between atoms: N_7  and  CA_14
REMARK    5  A    between atoms: CA_14  and  CB_15
REMARK    6  A    between atoms: CA_14  and  C_23
REMARK    7  A    between atoms: CB_15  and  CG_17
REMARK    8  A    between atoms: CG_17  and  CD_28
REMARK    9  A    between atoms: C_18  and  C_26
REMARK   10  A    between atoms: C_19  and  C_20
REMARK                            x       y       z     vdW  Elec       q    Type
REMARK                         _______ _______ _______ _____ _____    ______ ____
ROOT
ATOM      1  N   UNL     1       0.834  10.110  -1.099  1.00  0.00    -0.327 N 
ATOM      2  C   UNL     1       0.361   8.761  -0.856  1.00  0.00    +0.001 C 
ENDROOT
BRANCH   1   3
ATOM      3  C   UNL     1      -0.001  11.216  -0.839  1.00  0.00    +0.030 A 
ATOM      4  C   UNL     1      -1.652  13.404  -0.321  1.00  0.00    +0.037 A 
ATOM      5  C   UNL     1      -1.120  11.067  -0.018  1.00  0.00    -0.040 A 
ATOM      6  C   UNL     1       0.291  12.459  -1.401  1.00  0.00    -0.040 A 
ATOM      7  C   UNL     1      -1.946  12.162   0.241  1.00  0.00    -0.048 A 
ATOM      8  C   UNL     1      -0.534  13.552  -1.142  1.00  0.00    -0.048 A 
BRANCH   4  11
ATOM      9  O   UNL     1      -3.551  14.408   0.621  1.00  0.00    -0.270 OA
ATOM     10  N   UNL     1      -2.106  15.788  -0.558  1.00  0.00    -0.298 N 
ATOM     11  C   ACE A   0      -2.532  14.570  -0.045  1.00  0.00    +0.245 C 
ATOM     12  H   UNL     1      -1.273  15.816  -1.081  1.00  0.00    +0.000 HD
BRANCH  10  13
ATOM     13  CA  UNL     1      -2.838  17.012  -0.354  1.00  0.00    +0.121 C 
BRANCH  13  16
ATOM     14  O   UNL     1      -3.176  16.745  -2.698  1.00  0.00    -0.479 OA
ATOM     15  OXT UNL     1      -3.015  18.871  -1.918  1.00  0.00    -0.249 OA
ATOM     16  C   UNL     1      -3.026  17.665  -1.708  1.00  0.00    +0.325 C 
ENDBRANCH  13  16
BRANCH  13  17
ATOM     17  CB  UNL     1      -2.183  17.928   0.688  1.00  0.00    -0.014 C 
BRANCH  17  18
ATOM     18  CG  UNL     1      -2.303  17.472   2.147  1.00  0.00    +0.047 C 
BRANCH  18  21
ATOM     19  OE1 UNL     1      -0.548  17.566   3.748  1.00  0.00    -0.481 OA
ATOM     20  OE2 UNL     1      -0.516  15.823   2.298  1.00  0.00    -0.251 OA
ATOM     21  CD  UNL     1      -1.036  16.853   2.700  1.00  0.00    +0.305 C 
ENDBRANCH  18  21
ENDBRANCH  17  18
ENDBRANCH  13  17
ENDBRANCH  10  13
ENDBRANCH   4  11
ENDBRANCH   1   3
BRANCH   1  22
ATOM     22  C   UNL     1       2.168  10.306  -1.629  1.00  0.00    +0.056 C 
BRANCH  22  29
ATOM     23  N   UNL     1       3.507   9.083   0.003  1.00  0.00    -0.242 NA
ATOM     24  N   UNL     1       4.673  11.416   0.930  1.00  0.00    -0.232 NA
ATOM     25  N   UNL     1       5.918  10.203   2.459  1.00  0.00    -0.193 NA
ATOM     26  N   UNL     1       5.721   7.816   2.594  1.00  0.00    -0.198 NA
ATOM     27  N   UNL     1       4.237   6.683   1.146  1.00  0.00    -0.341 N 
ATOM     28  N   UNL     1       7.181   8.976   4.011  1.00  0.00    -0.327 N 
ATOM     29  C   UNL     1       3.184  10.276  -0.520  1.00  0.00    +0.077 A 
ATOM     30  C   UNL     1       3.762  11.429  -0.063  1.00  0.00    +0.053 A 
ATOM     31  C   UNL     1       4.418   9.072   0.994  1.00  0.00    +0.148 A 
ATOM     32  C   UNL     1       5.014  10.241   1.472  1.00  0.00    +0.185 A 
ATOM     33  C   UNL     1       4.817   7.896   1.600  1.00  0.00    +0.149 A 
ATOM     34  C   UNL     1       6.227   8.997   2.970  1.00  0.00    +0.216 A 
ATOM     35  H   UNL     1       4.500   5.828   1.557  1.00  0.00    +0.000 HD
ATOM     36  H   UNL     1       3.571   6.697   0.421  1.00  0.00    +0.000 HD
ATOM     37  H   UNL     1       7.584   9.817   4.325  1.00  0.00    +0.000 HD
ATOM     38  H   UNL     1       7.444   8.120   4.420  1.00  0.00    +0.000 HD
ENDBRANCH  22  29
ENDBRANCH   1  22
TORSDOF 9
ENDMDL
MODEL 5
REMARK VINA RESULT:    -8.706      1.525      2.806
REMARK INTER + INTRA:         -14.612
REMARK INTER:                 -13.841
REMARK INTRA:                  -0.771
REMARK UNBOUND:                -1.325
REMARK  Name = 126941
REMARK  10 active torsions:
REMARK  status: ('A' for Active; 'I' for Inactive)
REMARK    1  A    between atoms: N_6  and  C_16
REMARK    2  A    between atoms: N_6  and  C_18
REMARK    3  A    between atoms: N_6  and  C_27
REMARK    4  A    between atoms: N_7  and  CA_14
REMARK    5  A    between atoms: CA_14  and  CB_15
REMARK    6  A    between atoms: CA_14  and  C_23
REMARK    7  A    between atoms: CB_15  and  CG_17
REMARK    8  A    between atoms: CG_17  and  CD_28
REMARK    9  A    between atoms: C_18  and  C_26
REMARK   10  A    between atoms: C_19  and  C_20
REMARK                            x       y       z     vdW  Elec       q    Type
REMARK                         _______ _______ _______ _____ _____    ______ ____
ROOT
ATOM      1  N   UNL     1       0.402  10.179  -1.389  1.00  0.00    -0.327 N 
ATOM      2  C   UNL     1      -0.189   8.861  -1.269  1.00  0.00    +0.001 C 
ENDROOT
BRANCH   1   3
ATOM      3  C   UNL     1      -0.312  11.321  -0.971  1.00  0.00    +0.030 A 
ATOM      4  C   UNL     1      -1.723  13.581  -0.144  1.00  0.00    +0.037 A 
ATOM      5  C   UNL     1      -1.310  11.204  -0.004  1.00  0.00    -0.040 A 
ATOM      6  C   UNL     1      -0.020  12.568  -1.525  1.00  0.00    -0.040 A 
ATOM      7  C   UNL     1      -2.016  12.334   0.410  1.00  0.00    -0.048 A 
ATOM      8  C   UNL     1      -0.725  13.697  -1.112  1.00  0.00    -0.048 A 
BRANCH   4  11
ATOM      9  O   UNL     1      -3.693  14.713   0.433  1.00  0.00    -0.270 OA
ATOM     10  N   UNL     1      -1.714  15.918   0.549  1.00  0.00    -0.298 N 
ATOM     11  C   ACE A   0      -2.475  14.784   0.297  1.00  0.00    +0.245 C 
ATOM     12  H   UNL     1      -0.741  15.875   0.410  1.00  0.00    +0.000 HD
BRANCH  10  13
ATOM     13  CA  UNL     1      -2.295  17.155   1.006  1.00  0.00    +0.121 C 
BRANCH  13  16
ATOM     14  O   UNL     1      -4.094  17.088   2.568  1.00  0.00    -0.479 OA
ATOM     15  OXT UNL     1      -2.010  16.712   3.384  1.00  0.00    -0.249 OA
ATOM     16  C   UNL     1      -2.749  16.946   2.437  1.00  0.00    +0.325 C 
ENDBRANCH  13  16
BRANCH  13  17
ATOM     17  CB  UNL     1      -3.400  17.671   0.076  1.00  0.00    -0.014 C 
BRANCH  17  18
ATOM     18  CG  UNL     1      -2.936  18.569  -1.077  1.00  0.00    +0.047 C 
BRANCH  18  21
ATOM     19  OE1 UNL     1      -2.846  16.617  -2.431  1.00  0.00    -0.481 OA
ATOM     20  OE2 UNL     1      -3.503  18.536  -3.447  1.00  0.00    -0.251 OA
ATOM     21  CD  UNL     1      -3.121  17.947  -2.446  1.00  0.00    +0.305 C 
ENDBRANCH  18  21
ENDBRANCH  17  18
ENDBRANCH  13  17
ENDBRANCH  10  13
ENDBRANCH   4  11
ENDBRANCH   1   3
BRANCH   1  22
ATOM     22  C   UNL     1       1.729  10.309  -1.957  1.00  0.00    +0.056 C 
BRANCH  22  29
ATOM     23  N   UNL     1       3.180   9.222  -0.325  1.00  0.00    -0.242 NA
ATOM     24  N   UNL     1       4.193  11.653   0.528  1.00  0.00    -0.232 NA
ATOM     25  N   UNL     1       5.549  10.567   2.060  1.00  0.00    -0.193 NA
ATOM     26  N   UNL     1       5.525   8.176   2.250  1.00  0.00    -0.198 NA
ATOM     27  N   UNL     1       4.100   6.907   0.856  1.00  0.00    -0.341 N 
ATOM     28  N   UNL     1       6.923   9.469   3.613  1.00  0.00    -0.327 N 
ATOM     29  C   UNL     1       2.764  10.377  -0.868  1.00  0.00    +0.077 A 
ATOM     30  C   UNL     1       3.265  11.578  -0.446  1.00  0.00    +0.053 A 
ATOM     31  C   UNL     1       4.107   9.299   0.648  1.00  0.00    +0.148 A 
ATOM     32  C   UNL     1       4.627  10.518   1.090  1.00  0.00    +0.185 A 
ATOM     33  C   UNL     1       4.600   8.169   1.272  1.00  0.00    +0.149 A 
ATOM     34  C   UNL     1       5.952   9.398   2.591  1.00  0.00    +0.216 A 
ATOM     35  H   UNL     1       4.431   6.082   1.280  1.00  0.00    +0.000 HD
ATOM     36  H   UNL     1       3.422   6.857   0.144  1.00  0.00    +0.000 HD
ATOM     37  H   UNL     1       7.271  10.343   3.901  1.00  0.00    +0.000 HD
ATOM     38  H   UNL     1       7.253   8.644   4.036  1.00  0.00    +0.000 HD
ENDBRANCH  22  29
ENDBRANCH   1  22
TORSDOF 9
ENDMDL
MODEL 6
REMARK VINA RESULT:    -8.661      2.725      5.079
REMARK INTER + INTRA:         -14.543
REMARK INTER:                 -13.527
REMARK INTRA:                  -1.016
REMARK UNBOUND:                -1.325
REMARK  Name = 126941
REMARK  10 active torsions:
REMARK  status: ('A' for Active; 'I' for Inactive)
REMARK    1  A    between atoms: N_6  and  C_16
REMARK    2  A    between atoms: N_6  and  C_18
REMARK    3  A    between atoms: N_6  and  C_27
REMARK    4  A    between atoms: N_7  and  CA_14
REMARK    5  A    between atoms: CA_14  and  CB_15
REMARK    6  A    between atoms: CA_14  and  C_23
REMARK    7  A    between atoms: CB_15  and  CG_17
REMARK    8  A    between atoms: CG_17  and  CD_28
REMARK    9  A    between atoms: C_18  and  C_26
REMARK   10  A    between atoms: C_19  and  C_20
REMARK                            x       y       z     vdW  Elec       q    Type
REMARK                         _______ _______ _______ _____ _____    ______ ____
ROOT
ATOM      1  N   UNL     1       2.206  11.731   0.041  1.00  0.00    -0.327 N 
ATOM      2  C   UNL     1       3.524  12.316  -0.097  1.00  0.00    +0.001 C 
ENDROOT
BRANCH   1   3
ATOM      3  C   UNL     1       1.057  12.550   0.025  1.00  0.00    +0.030 A 
ATOM      4  C   UNL     1      -1.216  14.167  -0.007  1.00  0.00    +0.037 A 
ATOM      5  C   UNL     1       0.435  12.854  -1.186  1.00  0.00    -0.040 A 
ATOM      6  C   UNL     1       0.543  13.055   1.220  1.00  0.00    -0.040 A 
ATOM      7  C   UNL     1      -0.703  13.663  -1.202  1.00  0.00    -0.048 A 
ATOM      8  C   UNL     1      -0.593  13.863   1.204  1.00  0.00    -0.048 A 
BRANCH   4  11
ATOM      9  O   UNL     1      -3.472  14.602   0.459  1.00  0.00    -0.270 OA
ATOM     10  N   UNL     1      -2.268  16.290  -0.580  1.00  0.00    -0.298 N 
ATOM     11  C   ACE A   0      -2.427  15.028  -0.024  1.00  0.00    +0.245 C 
ATOM     12  H   UNL     1      -1.387  16.540  -0.942  1.00  0.00    +0.000 HD
BRANCH  10  13
ATOM     13  CA  UNL     1      -3.341  17.248  -0.647  1.00  0.00    +0.121 C 
BRANCH  13  16
ATOM     14  O   UNL     1      -4.576  16.620  -2.586  1.00  0.00    -0.479 OA
ATOM     15  OXT UNL     1      -3.114  18.342  -2.811  1.00  0.00    -0.249 OA
ATOM     16  C   UNL     1      -3.648  17.492  -2.110  1.00  0.00    +0.325 C 
ENDBRANCH  13  16
BRANCH  13  17
ATOM     17  CB  UNL     1      -3.044  18.528   0.144  1.00  0.00    -0.014 C 
BRANCH  17  18
ATOM     18  CG  UNL     1      -1.979  18.404   1.241  1.00  0.00    +0.047 C 
BRANCH  18  21
ATOM     19  OE1 UNL     1      -1.486  17.590   3.419  1.00  0.00    -0.481 OA
ATOM     20  OE2 UNL     1      -3.623  17.350   2.699  1.00  0.00    -0.251 OA
ATOM     21  CD  UNL     1      -2.475  17.719   2.497  1.00  0.00    +0.305 C 
ENDBRANCH  18  21
ENDBRANCH  17  18
ENDBRANCH  13  17
ENDBRANCH  10  13
ENDBRANCH   4  11
ENDBRANCH   1   3
BRANCH   1  22
ATOM     22  C   UNL     1       2.083  10.297   0.210  1.00  0.00    +0.056 C 
BRANCH  22  29
ATOM     23  N   UNL     1       2.134   9.893  -2.194  1.00  0.00    -0.242 NA
ATOM     24  N   UNL     1      -0.140   8.320  -2.070  1.00  0.00    -0.232 NA
ATOM     25  N   UNL     1      -0.041   7.970  -4.357  1.00  0.00    -0.193 NA
ATOM     26  N   UNL     1       1.702   8.952  -5.680  1.00  0.00    -0.198 NA
ATOM     27  N   UNL     1       3.343  10.295  -4.638  1.00  0.00    -0.341 N 
ATOM     28  N   UNL     1       0.057   7.615  -6.674  1.00  0.00    -0.327 N 
ATOM     29  C   UNL     1       1.508   9.668  -1.029  1.00  0.00    +0.077 A 
ATOM     30  C   UNL     1       0.385   8.889  -0.967  1.00  0.00    +0.053 A 
ATOM     31  C   UNL     1       1.609   9.322  -3.295  1.00  0.00    +0.148 A 
ATOM     32  C   UNL     1       0.461   8.527  -3.247  1.00  0.00    +0.185 A 
ATOM     33  C   UNL     1       2.176   9.493  -4.543  1.00  0.00    +0.149 A 
ATOM     34  C   UNL     1       0.601   8.209  -5.515  1.00  0.00    +0.216 A 
ATOM     35  H   UNL     1       3.773  10.436  -5.513  1.00  0.00    +0.000 HD
ATOM     36  H   UNL     1       3.723  10.710  -3.830  1.00  0.00    +0.000 HD
ATOM     37  H   UNL     1      -0.753   7.059  -6.608  1.00  0.00    +0.000 HD
ATOM     38  H   UNL     1       0.486   7.757  -7.548  1.00  0.00    +0.000 HD
ENDBRANCH  22  29
ENDBRANCH   1  22
TORSDOF 9
ENDMDL
MODEL 7
REMARK VINA RESULT:    -8.302      1.171      2.141
REMARK INTER + INTRA:         -13.995
REMARK INTER:                 -13.188
REMARK INTRA:                  -0.807
REMARK UNBOUND:                -1.325
REMARK  Name = 126941
REMARK  10 active torsions:
REMARK  status: ('A' for Active; 'I' for Inactive)
REMARK    1  A    between atoms: N_6  and  C_16
REMARK    2  A    between atoms: N_6  and  C_18
REMARK    3  A    between atoms: N_6  and  C_27
REMARK    4  A    between atoms: N_7  and  CA_14
REMARK    5  A    between atoms: CA_14  and  CB_15
REMARK    6  A    between atoms: CA_14  and  C_23
REMARK    7  A    between atoms: CB_15  and  CG_17
REMARK    8  A    between atoms: CG_17  and  CD_28
REMARK    9  A    between atoms: C_18  and  C_26
REMARK   10  A    between atoms: C_19  and  C_20
REMARK                            x       y       z     vdW  Elec       q    Type
REMARK                         _______ _______ _______ _____ _____    ______ ____
ROOT
ATOM      1  N   UNL     1       0.680   9.932  -1.515  1.00  0.00    -0.327 N 
ATOM      2  C   UNL     1      -0.078   8.708  -1.345  1.00  0.00    +0.001 C 
ENDROOT
BRANCH   1   3
ATOM      3  C   UNL     1       0.084  11.183  -1.253  1.00  0.00    +0.030 A 
ATOM      4  C   UNL     1      -1.096  13.657  -0.735  1.00  0.00    +0.037 A 
ATOM      5  C   UNL     1      -0.959  11.278  -0.331  1.00  0.00    -0.040 A 
ATOM      6  C   UNL     1       0.536  12.324  -1.916  1.00  0.00    -0.040 A 
ATOM      7  C   UNL     1      -1.549  12.516  -0.072  1.00  0.00    -0.048 A 
ATOM      8  C   UNL     1      -0.054  13.560  -1.657  1.00  0.00    -0.048 A 
BRANCH   4  11
ATOM      9  O   UNL     1      -2.098  15.670  -1.399  1.00  0.00    -0.270 OA
ATOM     10  N   UNL     1      -1.863  15.313   0.881  1.00  0.00    -0.298 N 
ATOM     11  C   ACE A   0      -1.724  14.975  -0.458  1.00  0.00    +0.245 C 
ATOM     12  H   UNL     1      -1.532  14.687   1.564  1.00  0.00    +0.000 HD
BRANCH  10  13
ATOM     13  CA  UNL     1      -2.475  16.546   1.309  1.00  0.00    +0.121 C 
BRANCH  13  16
ATOM     14  O   UNL     1      -2.328  18.001   3.190  1.00  0.00    -0.479 OA
ATOM     15  OXT UNL     1      -0.461  16.830   2.649  1.00  0.00    -0.249 OA
ATOM     16  C   UNL     1      -1.635  17.106   2.438  1.00  0.00    +0.325 C 
ENDBRANCH  13  16
BRANCH  13  17
ATOM     17  CB  UNL     1      -3.957  16.379   1.665  1.00  0.00    -0.014 C 
BRANCH  17  18
ATOM     18  CG  UNL     1      -4.526  14.963   1.513  1.00  0.00    +0.047 C 
BRANCH  18  21
ATOM     19  OE1 UNL     1      -5.979  13.680   2.889  1.00  0.00    -0.481 OA
ATOM     20  OE2 UNL     1      -3.927  14.153   3.732  1.00  0.00    -0.251 OA
ATOM     21  CD  UNL     1      -4.748  14.250   2.831  1.00  0.00    +0.305 C 
ENDBRANCH  18  21
ENDBRANCH  17  18
ENDBRANCH  13  17
ENDBRANCH  10  13
ENDBRANCH   4  11
ENDBRANCH   1   3
BRANCH   1  22
ATOM     22  C   UNL     1       2.053   9.854  -1.971  1.00  0.00    +0.056 C 
BRANCH  22  29
ATOM     23  N   UNL     1       3.686  10.080  -0.174  1.00  0.00    -0.242 NA
ATOM     24  N   UNL     1       3.727   7.346   0.256  1.00  0.00    -0.232 NA
ATOM     25  N   UNL     1       5.277   7.621   1.954  1.00  0.00    -0.193 NA
ATOM     26  N   UNL     1       6.081   9.801   2.548  1.00  0.00    -0.198 NA
ATOM     27  N   UNL     1       5.282  11.697   1.387  1.00  0.00    -0.341 N 
ATOM     28  N   UNL     1       6.849   7.897   3.675  1.00  0.00    -0.327 N 
ATOM     29  C   UNL     1       2.928   9.250  -0.907  1.00  0.00    +0.077 A 
ATOM     30  C   UNL     1       2.948   7.899  -0.694  1.00  0.00    +0.053 A 
ATOM     31  C   UNL     1       4.464   9.525   0.776  1.00  0.00    +0.148 A 
ATOM     32  C   UNL     1       4.495   8.147   1.003  1.00  0.00    +0.185 A 
ATOM     33  C   UNL     1       5.282  10.291   1.583  1.00  0.00    +0.149 A 
ATOM     34  C   UNL     1       6.030   8.470   2.678  1.00  0.00    +0.216 A 
ATOM     35  H   UNL     1       5.853  12.272   1.947  1.00  0.00    +0.000 HD
ATOM     36  H   UNL     1       4.712  12.097   0.691  1.00  0.00    +0.000 HD
ATOM     37  H   UNL     1       6.848   6.922   3.812  1.00  0.00    +0.000 HD
ATOM     38  H   UNL     1       7.419   8.472   4.234  1.00  0.00    +0.000 HD
ENDBRANCH  22  29
ENDBRANCH   1  22
TORSDOF 9
ENDMDL
MODEL 8
REMARK VINA RESULT:    -8.236      2.619      4.452
REMARK INTER + INTRA:         -13.894
REMARK INTER:                 -12.944
REMARK INTRA:                  -0.950
REMARK UNBOUND:                -1.325
REMARK  Name = 126941
REMARK  10 active torsions:
REMARK  status: ('A' for Active; 'I' for Inactive)
REMARK    1  A    between atoms: N_6  and  C_16
REMARK    2  A    between atoms: N_6  and  C_18
REMARK    3  A    between atoms: N_6  and  C_27
REMARK    4  A    between atoms: N_7  and  CA_14
REMARK    5  A    between atoms: CA_14  and  CB_15
REMARK    6  A    between atoms: CA_14  and  C_23
REMARK    7  A    between atoms: CB_15  and  CG_17
REMARK    8  A    between atoms: CG_17  and  CD_28
REMARK    9  A    between atoms: C_18  and  C_26
REMARK   10  A    between atoms: C_19  and  C_20
REMARK                            x       y       z     vdW  Elec       q    Type
REMARK                         _______ _______ _______ _____ _____    ______ ____
ROOT
ATOM      1  N   UNL     1       1.014  10.449   0.118  1.00  0.00    -0.327 N 
ATOM      2  C   UNL     1       2.460  10.400   0.193  1.00  0.00    +0.001 C 
ENDROOT
BRANCH   1   3
ATOM      3  C   UNL     1       0.334  11.678   0.245  1.00  0.00    +0.030 A 
ATOM      4  C   UNL     1      -1.011  14.109   0.496  1.00  0.00    +0.037 A 
ATOM      5  C   UNL     1       0.319  12.343   1.471  1.00  0.00    -0.040 A 
ATOM      6  C   UNL     1      -0.325  12.228  -0.855  1.00  0.00    -0.040 A 
ATOM      7  C   UNL     1      -0.353  13.559   1.597  1.00  0.00    -0.048 A 
ATOM      8  C   UNL     1      -0.997  13.443  -0.729  1.00  0.00    -0.048 A 
BRANCH   4  11
ATOM      9  O   UNL     1      -1.914  16.092  -0.370  1.00  0.00    -0.270 OA
ATOM     10  N   UNL     1      -2.159  15.731   1.909  1.00  0.00    -0.298 N 
ATOM     11  C   ACE A   0      -1.727  15.404   0.630  1.00  0.00    +0.245 C 
ATOM     12  H   UNL     1      -1.960  15.112   2.647  1.00  0.00    +0.000 HD
BRANCH  10  13
ATOM     13  CA  UNL     1      -2.888  16.940   2.194  1.00  0.00    +0.121 C 
BRANCH  13  16
ATOM     14  O   UNL     1      -1.887  18.954   1.405  1.00  0.00    -0.479 OA
ATOM     15  OXT UNL     1      -1.103  18.115   3.363  1.00  0.00    -0.249 OA
ATOM     16  C   UNL     1      -1.875  18.045   2.416  1.00  0.00    +0.325 C 
ENDBRANCH  13  16
BRANCH  13  17
ATOM     17  CB  UNL     1      -3.884  16.774   3.349  1.00  0.00    -0.014 C 
BRANCH  17  18
ATOM     18  CG  UNL     1      -5.175  16.017   3.013  1.00  0.00    +0.047 C 
BRANCH  18  21
ATOM     19  OE1 UNL     1      -3.906  14.155   3.767  1.00  0.00    -0.481 OA
ATOM     20  OE2 UNL     1      -6.137  13.836   3.516  1.00  0.00    -0.251 OA
ATOM     21  CD  UNL     1      -5.158  14.563   3.437  1.00  0.00    +0.305 C 
ENDBRANCH  18  21
ENDBRANCH  17  18
ENDBRANCH  13  17
ENDBRANCH  10  13
ENDBRANCH   4  11
ENDBRANCH   1   3
BRANCH   1  22
ATOM     22  C   UNL     1       0.275   9.217  -0.073  1.00  0.00    +0.056 C 
BRANCH  22  29
ATOM     23  N   UNL     1       1.145   9.243  -2.352  1.00  0.00    -0.242 NA
ATOM     24  N   UNL     1       1.230   6.479  -2.449  1.00  0.00    -0.232 NA
ATOM     25  N   UNL     1       2.054   6.565  -4.611  1.00  0.00    -0.193 NA
ATOM     26  N   UNL     1       2.435   8.667  -5.702  1.00  0.00    -0.198 NA
ATOM     27  N   UNL     1       1.963  10.680  -4.558  1.00  0.00    -0.341 N 
ATOM     28  N   UNL     1       2.889   6.651  -6.803  1.00  0.00    -0.327 N 
ATOM     29  C   UNL     1       0.757   8.500  -1.304  1.00  0.00    +0.077 A 
ATOM     30  C   UNL     1       0.800   7.133  -1.353  1.00  0.00    +0.053 A 
ATOM     31  C   UNL     1       1.575   8.588  -3.446  1.00  0.00    +0.148 A 
ATOM     32  C   UNL     1       1.622   7.193  -3.510  1.00  0.00    +0.185 A 
ATOM     33  C   UNL     1       1.995   9.261  -4.578  1.00  0.00    +0.149 A 
ATOM     34  C   UNL     1       2.438   7.330  -5.650  1.00  0.00    +0.216 A 
ATOM     35  H   UNL     1       2.256  11.189  -5.348  1.00  0.00    +0.000 HD
ATOM     36  H   UNL     1       1.648  11.154  -3.755  1.00  0.00    +0.000 HD
ATOM     37  H   UNL     1       2.912   5.667  -6.816  1.00  0.00    +0.000 HD
ATOM     38  H   UNL     1       3.182   7.161  -7.592  1.00  0.00    +0.000 HD
ENDBRANCH  22  29
ENDBRANCH   1  22
TORSDOF 9
ENDMDL
MODEL 9
REMARK VINA RESULT:    -8.186      2.202      2.871
REMARK INTER + INTRA:         -13.818
REMARK INTER:                 -12.524
REMARK INTRA:                  -1.294
REMARK UNBOUND:                -1.325
REMARK  Name = 126941
REMARK  10 active torsions:
REMARK  status: ('A' for Active; 'I' for Inactive)
REMARK    1  A    between atoms: N_6  and  C_16
REMARK    2  A    between atoms: N_6  and  C_18
REMARK    3  A    between atoms: N_6  and  C_27
REMARK    4  A    between atoms: N_7  and  CA_14
REMARK    5  A    between atoms: CA_14  and  CB_15
REMARK    6  A    between atoms: CA_14  and  C_23
REMARK    7  A    between atoms: CB_15  and  CG_17
REMARK    8  A    between atoms: CG_17  and  CD_28
REMARK    9  A    between atoms: C_18  and  C_26
REMARK   10  A    between atoms: C_19  and  C_20
REMARK                            x       y       z     vdW  Elec       q    Type
REMARK                         _______ _______ _______ _____ _____    ______ ____
ROOT
ATOM      1  N   UNL     1       0.356   9.995  -1.287  1.00  0.00    -0.327 N 
ATOM      2  C   UNL     1      -0.065   9.174  -2.405  1.00  0.00    +0.001 C 
ENDROOT
BRANCH   1   3
ATOM      3  C   UNL     1      -0.201  11.276  -1.092  1.00  0.00    +0.030 A 
ATOM      4  C   UNL     1      -1.303  13.809  -0.704  1.00  0.00    +0.037 A 
ATOM      5  C   UNL     1      -1.233  11.453  -0.169  1.00  0.00    -0.040 A 
ATOM      6  C   UNL     1       0.278  12.364  -1.820  1.00  0.00    -0.040 A 
ATOM      7  C   UNL     1      -1.784  12.721   0.025  1.00  0.00    -0.048 A 
ATOM      8  C   UNL     1      -0.273  13.630  -1.627  1.00  0.00    -0.048 A 
BRANCH   4  11
ATOM      9  O   UNL     1      -2.132  15.863  -1.474  1.00  0.00    -0.270 OA
ATOM     10  N   UNL     1      -2.148  15.514   0.820  1.00  0.00    -0.298 N 
ATOM     11  C   ACE A   0      -1.891  15.158  -0.497  1.00  0.00    +0.245 C 
ATOM     12  H   UNL     1      -1.918  14.878   1.535  1.00  0.00    +0.000 HD
BRANCH  10  13
ATOM     13  CA  UNL     1      -2.738  16.778   1.179  1.00  0.00    +0.121 C 
BRANCH  13  16
ATOM     14  O   UNL     1      -0.999  16.500   2.784  1.00  0.00    -0.479 OA
ATOM     15  OXT UNL     1      -1.957  18.554   2.653  1.00  0.00    -0.249 OA
ATOM     16  C   UNL     1      -1.874  17.397   2.259  1.00  0.00    +0.325 C 
ENDBRANCH  13  16
BRANCH  13  17
ATOM     17  CB  UNL     1      -4.217  16.654   1.566  1.00  0.00    -0.014 C 
BRANCH  17  18
ATOM     18  CG  UNL     1      -4.496  16.302   3.033  1.00  0.00    +0.047 C 
BRANCH  18  21
ATOM     19  OE1 UNL     1      -5.772  14.359   3.530  1.00  0.00    -0.481 OA
ATOM     20  OE2 UNL     1      -3.532  14.081   3.308  1.00  0.00    -0.251 OA
ATOM     21  CD  UNL     1      -4.511  14.813   3.311  1.00  0.00    +0.305 C 
ENDBRANCH  18  21
ENDBRANCH  17  18
ENDBRANCH  13  17
ENDBRANCH  10  13
ENDBRANCH   4  11
ENDBRANCH   1   3
BRANCH   1  22
ATOM     22  C   UNL     1       1.369   9.489  -0.382  1.00  0.00    +0.056 C 
BRANCH  22  29
ATOM     23  N   UNL     1       3.286   9.488  -1.890  1.00  0.00    -0.242 NA
ATOM     24  N   UNL     1       4.594  11.401  -0.376  1.00  0.00    -0.232 NA
ATOM     25  N   UNL     1       6.386  11.357  -1.842  1.00  0.00    -0.193 NA
ATOM     26  N   UNL     1       6.378   9.911  -3.756  1.00  0.00    -0.198 NA
ATOM     27  N   UNL     1       4.517   8.510  -4.154  1.00  0.00    -0.341 N 
ATOM     28  N   UNL     1       8.203  11.314  -3.326  1.00  0.00    -0.327 N 
ATOM     29  C   UNL     1       2.729   9.994  -0.779  1.00  0.00    +0.077 A 
ATOM     30  C   UNL     1       3.376  10.940  -0.031  1.00  0.00    +0.053 A 
ATOM     31  C   UNL     1       4.503   9.949  -2.233  1.00  0.00    +0.148 A 
ATOM     32  C   UNL     1       5.176  10.914  -1.479  1.00  0.00    +0.185 A 
ATOM     33  C   UNL     1       5.163   9.492  -3.358  1.00  0.00    +0.149 A 
ATOM     34  C   UNL     1       6.927  10.836  -2.959  1.00  0.00    +0.216 A 
ATOM     35  H   UNL     1       4.960   8.164  -4.963  1.00  0.00    +0.000 HD
ATOM     36  H   UNL     1       3.627   8.176  -3.899  1.00  0.00    +0.000 HD
ATOM     37  H   UNL     1       8.651  11.995  -2.774  1.00  0.00    +0.000 HD
ATOM     38  H   UNL     1       8.645  10.967  -4.134  1.00  0.00    +0.000 HD
ENDBRANCH  22  29
ENDBRANCH   1  22
TORSDOF 9
ENDMDL
