BEGIN_RES SER A 35
REMARK INDEX MAP 3 1 15 2 18 3 19 4
ROOT
ATOM      1  CA  SER A  35       4.496  15.240  -4.094  1.00  0.00    +0.197 C 
ENDROOT
BRANCH   1   2
ATOM      2  CB  SER A  35       4.573  13.713  -4.231  1.00  0.00    +0.191 C 
BRANCH   2   3
ATOM      3  OG  SER A  35       3.567  13.103  -3.441  1.00  0.00    -0.392 OA
ATOM      4  HG  SER A  35       3.778  13.231  -2.482  1.00  0.00    +0.210 HD
ENDBRANCH   2   3
ENDBRANCH   1   2
END_RES SER A 35
BEGIN_RES SER A 64
REMARK INDEX MAP 3 1 15 2 18 3 19 4
ROOT
ATOM      5  CA  SER A  64       2.994   8.665   4.603  1.00  0.00    +0.197 C 
ENDROOT
BRANCH   5   6
ATOM      6  CB  SER A  64       1.858   9.047   3.639  1.00  0.00    +0.191 C 
BRANCH   6   7
ATOM      7  OG  SER A  64       1.596   8.021   2.681  1.00  0.00    -0.392 OA
ATOM      8  HG  SER A  64       1.381   7.177   3.152  1.00  0.00    +0.210 HD
ENDBRANCH   6   7
ENDBRANCH   5   6
END_RES SER A 64
