REMARK  Name = 126941
REMARK  10 active torsions:
REMARK  status: ('A' for Active; 'I' for Inactive)
REMARK    1  A    between atoms: N_6  and  C_16
REMARK    2  A    between atoms: N_6  and  C_18
REMARK    3  A    between atoms: N_6  and  C_27
REMARK    4  A    between atoms: N_7  and  CA_14
REMARK    5  A    between atoms: CA_14  and  CB_15
REMARK    6  A    between atoms: CA_14  and  C_23
REMARK    7  A    between atoms: CB_15  and  CG_17
REMARK    8  A    between atoms: CG_17  and  CD_28
REMARK    9  A    between atoms: C_18  and  C_26
REMARK   10  A    between atoms: C_19  and  C_20
REMARK                            x       y       z     vdW  Elec       q    Type
REMARK                         _______ _______ _______ _____ _____    ______ ____
ROOT
ATOM      1  N   UNL     1      -2.204   3.004   0.414  1.00  0.00    -0.327 N 
ATOM      2  C   UNL     1      -2.846   3.550   1.593  1.00  0.00    +0.001 C 
ENDROOT
BRANCH   1   3
ATOM      3  C   UNL     1      -0.832   2.678   0.435  1.00  0.00    +0.030 A 
ATOM      4  C   UNL     1       1.882   2.034   0.475  1.00  0.00    +0.037 A 
ATOM      5  C   UNL     1      -0.223   2.154  -0.706  1.00  0.00    -0.040 A 
ATOM      6  C   UNL     1      -0.084   2.879   1.595  1.00  0.00    -0.040 A 
ATOM      7  C   UNL     1       1.135   1.832  -0.686  1.00  0.00    -0.048 A 
ATOM      8  C   UNL     1       1.272   2.557   1.615  1.00  0.00    -0.048 A 
BRANCH   4  11
ATOM      9  O   UNL     1       4.071   2.275   1.280  1.00  0.00    -0.270 OA
ATOM     10  N   UNL     1       3.729   0.693  -0.382  1.00  0.00    -0.298 N 
ATOM     11  C   ACE A   0       3.328   1.691   0.496  1.00  0.00    +0.245 C 
ATOM     12  H   UNL     1       3.056   0.284  -0.972  1.00  0.00    +0.000 HD
BRANCH  10  13
ATOM     13  CA  UNL     1       5.092   0.233  -0.461  1.00  0.00    +0.121 C 
BRANCH  13  16
ATOM     14  O   UNL     1       6.695  -0.364  -2.120  1.00  0.00    -0.479 OA
ATOM     15  OXT UNL     1       4.545  -0.127  -2.807  1.00  0.00    -0.249 OA
ATOM     16  C   UNL     1       5.377  -0.109  -1.909  1.00  0.00    +0.325 C 
ENDBRANCH  13  16
BRANCH  13  17
ATOM     17  CB  UNL     1       5.389  -0.912   0.515  1.00  0.00    -0.014 C 
BRANCH  17  18
ATOM     18  CG  UNL     1       4.591  -2.203   0.293  1.00  0.00    +0.047 C 
BRANCH  18  21
ATOM     19  OE1 UNL     1       4.220  -4.435   1.021  1.00  0.00    -0.481 OA
ATOM     20  OE2 UNL     1       5.713  -3.208   2.208  1.00  0.00    -0.251 OA
ATOM     21  CD  UNL     1       4.911  -3.297   1.290  1.00  0.00    +0.305 C 
ENDBRANCH  18  21
ENDBRANCH  17  18
ENDBRANCH  13  17
ENDBRANCH  10  13
ENDBRANCH   4  11
ENDBRANCH   1   3
BRANCH   1  22
ATOM     22  C   UNL     1      -2.986   2.812  -0.791  1.00  0.00    +0.056 C 
BRANCH  22  29
ATOM     23  N   UNL     1      -3.902   0.769   0.176  1.00  0.00    -0.242 NA
ATOM     24  N   UNL     1      -3.694  -0.574  -2.235  1.00  0.00    -0.232 NA
ATOM     25  N   UNL     1      -4.569  -2.485  -1.263  1.00  0.00    -0.193 NA
ATOM     26  N   UNL     1      -5.194  -2.515   1.052  1.00  0.00    -0.198 NA
ATOM     27  N   UNL     1      -4.915  -0.569   2.363  1.00  0.00    -0.341 N 
ATOM     28  N   UNL     1      -5.455  -4.423  -0.280  1.00  0.00    -0.327 N 
ATOM     29  C   UNL     1      -3.415   1.376  -0.917  1.00  0.00    +0.077 A 
ATOM     30  C   UNL     1      -3.313   0.712  -2.109  1.00  0.00    +0.053 A 
ATOM     31  C   UNL     1      -4.283  -0.516   0.048  1.00  0.00    +0.148 A 
ATOM     32  C   UNL     1      -4.183  -1.207  -1.162  1.00  0.00    +0.185 A 
ATOM     33  C   UNL     1      -4.796  -1.231   1.113  1.00  0.00    +0.149 A 
ATOM     34  C   UNL     1      -5.054  -3.075  -0.155  1.00  0.00    +0.216 A 
ATOM     35  H   UNL     1      -5.278  -1.050   3.142  1.00  0.00    +0.000 HD
ATOM     36  H   UNL     1      -4.635   0.371   2.451  1.00  0.00    +0.000 HD
ATOM     37  H   UNL     1      -5.373  -4.882  -1.147  1.00  0.00    +0.000 HD
ATOM     38  H   UNL     1      -5.817  -4.903   0.499  1.00  0.00    +0.000 HD
ENDBRANCH  22  29
ENDBRANCH   1  22
TORSDOF 9
